# vtk DataFile Version 2.0
Unstructured Grid Example
ASCII
DATASET UNSTRUCTURED_GRID

POINTS 961 float
0.150000006 -0.00839745998 0
0.146666661 -0.00839745998 0
0.143333331 -0.00839745998 0
0.140000001 -0.00839745998 0
0.13666667 -0.00839745998 0
0.13333334 -0.00839745998 0
0.129999995 -0.00839745998 0
0.126666665 -0.00839745998 0
0.123333335 -0.00839745998 0
0.119999997 -0.00839745998 0
0.116666667 -0.00839745998 0
0.113333337 -0.00839745998 0
0.109999999 -0.00839745998 0
0.106666669 -0.00839745998 0
0.103333332 -0.00839745998 0
0.100000001 -0.00839745998 0
0.0966666639 -0.00839745998 0
0.0933333337 -0.00839745998 0
0.0900000036 -0.00839745998 0
0.086666666 -0.00839745998 0
0.0833333358 -0.00839745998 0
0.0799999982 -0.00839745998 0
0.0766666681 -0.00839745998 0
0.0733333305 -0.00839745998 0
0.0700000003 -0.00839745998 0
0.0666666701 -0.00839745998 0
0.0633333325 -0.00839745998 0
0.0599999987 -0.00839745998 0
0.0566666685 -0.00839745998 0
0.0533333346 -0.00839745998 0
0.0500000007 -0.00839745998 0
0.148333326 -0.0112842107 0
0.144999996 -0.0112842107 0
0.141666666 -0.0112842107 0
0.138333336 -0.0112842107 0
0.135000005 -0.0112842107 0
0.13166666 -0.0112842107 0
0.12833333 -0.0112842107 0
0.125 -0.0112842107 0
0.12166667 -0.0112842107 0
0.118333332 -0.0112842107 0
0.115000002 -0.0112842107 0
0.111666664 -0.0112842107 0
0.108333334 -0.0112842107 0
0.104999997 -0.0112842107 0
0.101666667 -0.0112842107 0
0.0983333364 -0.0112842107 0
0.0949999988 -0.0112842107 0
0.0916666687 -0.0112842107 0
0.088333331 -0.0112842107 0
0.0850000009 -0.0112842107 0
0.0816666633 -0.0112842107 0
0.0783333331 -0.0112842107 0
0.075000003 -0.0112842107 0
0.0716666654 -0.0112842107 0
0.0683333352 -0.0112842107 0
0.0649999976 -0.0112842107 0
0.0616666675 -0.0112842107 0
0.0583333336 -0.0112842107 0
0.0549999997 -0.0112842107 0
0.0516666658 -0.0112842107 0
0.0483333319 -0.0112842107 0
0.146666661 -0.0141709624 0
0.143333331 -0.0141709624 0
0.140000001 -0.0141709624 0
0.13666667 -0.0141709624 0
0.13333334 -0.0141709624 0
0.129999995 -0.0141709624 0
0.126666665 -0.0141709624 0
0.123333335 -0.0141709624 0
0.119999997 -0.0141709624 0
0.116666667 -0.0141709624 0
0.113333337 -0.0141709624 0
0.109999999 -0.0141709624 0
0.106666669 -0.0141709624 0
0.103333332 -0.0141709624 0
0.100000001 -0.0141709624 0
0.0966666639 -0.0141709624 0
0.0933333337 -0.0141709624 0
0.0900000036 -0.0141709624 0
0.086666666 -0.0141709624 0
0.0833333358 -0.0141709624 0
0.0799999982 -0.0141709624 0
0.0766666681 -0.0141709624 0
0.0733333305 -0.0141709624 0
0.0700000003 -0.0141709624 0
0.0666666701 -0.0141709624 0
0.0633333325 -0.0141709624 0
0.0599999987 -0.0141709624 0
0.0566666685 -0.0141709624 0
0.0533333346 -0.0141709624 0
0.0500000007 -0.0141709624 0
0.0466666669 -0.0141709624 0
0.144999996 -0.0170577131 0
0.141666666 -0.0170577131 0
0.138333336 -0.0170577131 0
0.135000005 -0.0170577131 0
0.13166666 -0.0170577131 0
0.12833333 -0.0170577131 0
0.125 -0.0170577131 0
0.12166667 -0.0170577131 0
0.118333332 -0.0170577131 0
0.115000002 -0.0170577131 0
0.111666664 -0.0170577131 0
0.108333334 -0.0170577131 0
0.104999997 -0.0170577131 0
0.101666667 -0.0170577131 0
0.0983333364 -0.0170577131 0
0.0949999988 -0.0170577131 0
0.0916666687 -0.0170577131 0
0.088333331 -0.0170577131 0
0.0850000009 -0.0170577131 0
0.0816666633 -0.0170577131 0
0.0783333331 -0.0170577131 0
0.075000003 -0.0170577131 0
0.0716666654 -0.0170577131 0
0.0683333352 -0.0170577131 0
0.0649999976 -0.0170577131 0
0.0616666675 -0.0170577131 0
0.0583333336 -0.0170577131 0
0.0549999997 -0.0170577131 0
0.0516666658 -0.0170577131 0
0.0483333319 -0.0170577131 0
0.0450000018 -0.0170577131 0
0.143333331 -0.0199444648 0
0.140000001 -0.0199444648 0
0.13666667 -0.0199444648 0
0.13333334 -0.0199444648 0
0.129999995 -0.0199444648 0
0.126666665 -0.0199444648 0
0.123333335 -0.0199444648 0
0.119999997 -0.0199444648 0
0.116666667 -0.0199444648 0
0.113333337 -0.0199444648 0
0.109999999 -0.0199444648 0
0.106666669 -0.0199444648 0
0.103333332 -0.0199444648 0
0.100000001 -0.0199444648 0
0.0966666639 -0.0199444648 0
0.0933333337 -0.0199444648 0
0.0900000036 -0.0199444648 0
0.086666666 -0.0199444648 0
0.0833333358 -0.0199444648 0
0.0799999982 -0.0199444648 0
0.0766666681 -0.0199444648 0
0.0733333305 -0.0199444648 0
0.0700000003 -0.0199444648 0
0.0666666701 -0.0199444648 0
0.0633333325 -0.0199444648 0
0.0599999987 -0.0199444648 0
0.0566666685 -0.0199444648 0
0.0533333346 -0.0199444648 0
0.0500000007 -0.0199444648 0
0.0466666669 -0.0199444648 0
0.043333333 -0.0199444648 0
0.141666666 -0.0228312165 0
0.138333336 -0.0228312165 0
0.135000005 -0.0228312165 0
0.13166666 -0.0228312165 0
0.12833333 -0.0228312165 0
0.125 -0.0228312165 0
0.12166667 -0.0228312165 0
0.118333332 -0.0228312165 0
0.115000002 -0.0228312165 0
0.111666664 -0.0228312165 0
0.108333334 -0.0228312165 0
0.104999997 -0.0228312165 0
0.101666667 -0.0228312165 0
0.0983333364 -0.0228312165 0
0.0949999988 -0.0228312165 0
0.0916666687 -0.0228312165 0
0.088333331 -0.0228312165 0
0.0850000009 -0.0228312165 0
0.0816666633 -0.0228312165 0
0.0783333331 -0.0228312165 0
0.075000003 -0.0228312165 0
0.0716666654 -0.0228312165 0
0.0683333352 -0.0228312165 0
0.0649999976 -0.0228312165 0
0.0616666675 -0.0228312165 0
0.0583333336 -0.0228312165 0
0.0549999997 -0.0228312165 0
0.0516666658 -0.0228312165 0
0.0483333319 -0.0228312165 0
0.0450000018 -0.0228312165 0
0.0416666679 -0.0228312165 0
0.140000001 -0.0257179681 0
0.13666667 -0.0257179681 0
0.13333334 -0.0257179681 0
0.129999995 -0.0257179681 0
0.126666665 -0.0257179681 0
0.123333335 -0.0257179681 0
0.119999997 -0.0257179681 0
0.116666667 -0.0257179681 0
0.113333337 -0.0257179681 0
0.109999999 -0.0257179681 0
0.106666669 -0.0257179681 0
0.103333332 -0.0257179681 0
0.100000001 -0.0257179681 0
0.0966666639 -0.0257179681 0
0.0933333337 -0.0257179681 0
0.0900000036 -0.0257179681 0
0.086666666 -0.0257179681 0
0.0833333358 -0.0257179681 0
0.0799999982 -0.0257179681 0
0.0766666681 -0.0257179681 0
0.0733333305 -0.0257179681 0
0.0700000003 -0.0257179681 0
0.0666666701 -0.0257179681 0
0.0633333325 -0.0257179681 0
0.0599999987 -0.0257179681 0
0.0566666685 -0.0257179681 0
0.0533333346 -0.0257179681 0
0.0500000007 -0.0257179681 0
0.0466666669 -0.0257179681 0
0.043333333 -0.0257179681 0
0.0399999991 -0.0257179681 0
0.138333336 -0.0286047198 0
0.135000005 -0.0286047198 0
0.13166666 -0.0286047198 0
0.12833333 -0.0286047198 0
0.125 -0.0286047198 0
0.12166667 -0.0286047198 0
0.118333332 -0.0286047198 0
0.115000002 -0.0286047198 0
0.111666664 -0.0286047198 0
0.108333334 -0.0286047198 0
0.104999997 -0.0286047198 0
0.101666667 -0.0286047198 0
0.0983333364 -0.0286047198 0
0.0949999988 -0.0286047198 0
0.0916666687 -0.0286047198 0
0.088333331 -0.0286047198 0
0.0850000009 -0.0286047198 0
0.0816666633 -0.0286047198 0
0.0783333331 -0.0286047198 0
0.075000003 -0.0286047198 0
0.0716666654 -0.0286047198 0
0.0683333352 -0.0286047198 0
0.0649999976 -0.0286047198 0
0.0616666675 -0.0286047198 0
0.0583333336 -0.0286047198 0
0.0549999997 -0.0286047198 0
0.0516666658 -0.0286047198 0
0.0483333319 -0.0286047198 0
0.0450000018 -0.0286047198 0
0.0416666679 -0.0286047198 0
0.038333334 -0.0286047198 0
0.13666667 -0.0314914696 0
0.13333334 -0.0314914696 0
0.129999995 -0.0314914696 0
0.126666665 -0.0314914696 0
0.123333335 -0.0314914696 0
0.119999997 -0.0314914696 0
0.116666667 -0.0314914696 0
0.113333337 -0.0314914696 0
0.109999999 -0.0314914696 0
0.106666669 -0.0314914696 0
0.103333332 -0.0314914696 0
0.100000001 -0.0314914696 0
0.0966666639 -0.0314914696 0
0.0933333337 -0.0314914696 0
0.0900000036 -0.0314914696 0
0.086666666 -0.0314914696 0
0.0833333358 -0.0314914696 0
0.0799999982 -0.0314914696 0
0.0766666681 -0.0314914696 0
0.0733333305 -0.0314914696 0
0.0700000003 -0.0314914696 0
0.0666666701 -0.0314914696 0
0.0633333325 -0.0314914696 0
0.0599999987 -0.0314914696 0
0.0566666685 -0.0314914696 0
0.0533333346 -0.0314914696 0
0.0500000007 -0.0314914696 0
0.0466666669 -0.0314914696 0
0.043333333 -0.0314914696 0
0.0399999991 -0.0314914696 0
0.0366666652 -0.0314914696 0
0.135000005 -0.0343782231 0
0.13166666 -0.0343782231 0
0.12833333 -0.0343782231 0
0.125 -0.0343782231 0
0.12166667 -0.0343782231 0
0.118333332 -0.0343782231 0
0.115000002 -0.0343782231 0
0.111666664 -0.0343782231 0
0.108333334 -0.0343782231 0
0.104999997 -0.0343782231 0
0.101666667 -0.0343782231 0
0.0983333364 -0.0343782231 0
0.0949999988 -0.0343782231 0
0.0916666687 -0.0343782231 0
0.088333331 -0.0343782231 0
0.0850000009 -0.0343782231 0
0.0816666633 -0.0343782231 0
0.0783333331 -0.0343782231 0
0.075000003 -0.0343782231 0
0.0716666654 -0.0343782231 0
0.0683333352 -0.0343782231 0
0.0649999976 -0.0343782231 0
0.0616666675 -0.0343782231 0
0.0583333336 -0.0343782231 0
0.0549999997 -0.0343782231 0
0.0516666658 -0.0343782231 0
0.0483333319 -0.0343782231 0
0.0450000018 -0.0343782231 0
0.0416666679 -0.0343782231 0
0.038333334 -0.0343782231 0
0.0350000001 -0.0343782231 0
0.13333334 -0.0372649729 0
0.129999995 -0.0372649729 0
0.126666665 -0.0372649729 0
0.123333335 -0.0372649729 0
0.119999997 -0.0372649729 0
0.116666667 -0.0372649729 0
0.113333337 -0.0372649729 0
0.109999999 -0.0372649729 0
0.106666669 -0.0372649729 0
0.103333332 -0.0372649729 0
0.100000001 -0.0372649729 0
0.0966666639 -0.0372649729 0
0.0933333337 -0.0372649729 0
0.0900000036 -0.0372649729 0
0.086666666 -0.0372649729 0
0.0833333358 -0.0372649729 0
0.0799999982 -0.0372649729 0
0.0766666681 -0.0372649729 0
0.0733333305 -0.0372649729 0
0.0700000003 -0.0372649729 0
0.0666666701 -0.0372649729 0
0.0633333325 -0.0372649729 0
0.0599999987 -0.0372649729 0
0.0566666685 -0.0372649729 0
0.0533333346 -0.0372649729 0
0.0500000007 -0.0372649729 0
0.0466666669 -0.0372649729 0
0.043333333 -0.0372649729 0
0.0399999991 -0.0372649729 0
0.0366666652 -0.0372649729 0
0.0333333351 -0.0372649729 0
0.13166666 -0.0401517227 0
0.12833333 -0.0401517227 0
0.125 -0.0401517227 0
0.12166667 -0.0401517227 0
0.118333332 -0.0401517227 0
0.115000002 -0.0401517227 0
0.111666664 -0.0401517227 0
[...]
POINT_DATA 961
SCALARS Temp float 1
LOOKUP_TABLE default
371.03996078499665
321.5245972453425
281.90561894268444
252.66350865830017
232.37939121662893
219.12915774217495
210.96120720293737
206.19764685700963
203.56134966501926
202.1722509809149
201.47300619788092
201.13559846204382
200.97902021141306
200.90892709469748
200.87857923658456
200.86585799326906
200.86076313073863
200.85907454618507
200.85952584555395
200.86313975240634
200.8746854665354
200.9075516131561
200.9952779953888
201.21534735291607
201.7323993011982
202.8659110685801
205.17689845865345
209.54800687914954
217.210048771854
229.67142230246992
248.83425497088763
321.5246390347195
274.45955424268647
238.70244194441915
213.02868970786525
195.6657844680734
184.59054529415695
177.91385529513272
174.09967958527304
172.0285853221627
170.95610654843475
170.42470910435048
170.17193959976262
170.05615307008082
170.00492938348097
169.9829954714922
169.97392783700388
169.97044944287634
169.9697135469379
169.97145010569707
169.9782185145618
169.99829286352406
170.0533602596749
170.1954038257346
170.53935111114643
171.31836298684834
172.96296711119524
176.18987272409294
182.0630863475576
191.97215496630946
207.49129552486315
229.67144179722578
281.90558003787436
238.70242539195544
206.43006900645665
183.63812211604554
168.429416483372
158.83353514012902
153.0987475830287
149.8445807909579
148.08636577039442
147.1791172111063
146.73063324330883
146.51759465973035
146.42006990200667
146.37693277497613
146.35847220794307
146.3508899815816
146.34816304776876
146.34820088029008
146.35164976548668
146.36303380574282
146.39531382923812
146.480841058268
146.69392133503328
147.19181307461244
148.27923381031158
150.4922226211097
154.67827993655675
162.02603793568224
173.98342419209402
191.97214551419046
217.2100576006086
252.66346089686894
213.0286670608116
183.63812533198413
162.9887636491481
149.2495255990524
140.58838095781263
135.40840620592294
132.46342097964103
130.86788529550816
130.0418902792461
129.63212231634841
129.43676797532353
129.34701838409055
129.30718913107484
129.29011386322998
129.28316142952613
129.2809179791142
129.28185102849403
129.28766211310418
129.30536094121535
129.35367093816996
129.47733634290222
129.77491956329763
130.44628946396517
131.8620457730511
134.6451657992795
139.73505671273247
148.3834492650547
162.02605183554425
182.06309902317207
209.54799859032286
232.37935204161386
195.66576674548412
168.4294086304901
149.24957584045083
136.44190305566485
128.33216114575362
123.45849778270382
120.67405146026255
119.15832466699679
118.37014308082144
117.97753439512526
117.78967092528583
117.70308198992977
117.6645550051099
117.64803090222263
117.64140383964298
117.63962447190112
117.64171060649458
117.6506144346364
117.67627653698663
117.74386389334103
117.91109404530486
118.30011809276274
119.14887838335262
120.88118459482853
124.18157734378359
130.04222409548822
139.73505081953823
154.67827600593708
176.18987048224668
205.17690473016458
219.12912113181483
184.5905726980652
158.83357130998678
140.58835435720604
128.33215123274942
120.52761940275742
115.81325282414895
113.1075938037727
111.62897980765375
110.85752413398737
110.47216469158387
110.28733334652907
110.20197746668521
110.16395217483219
110.14767155309934
110.14129151929102
110.1400541948301
110.14358271226487
110.15623996099579
110.19112420356235
110.27992131209712
110.49256267219008
110.9716786263589
111.98531199801961
113.99477154080304
117.72161527597311
124.18157530370632
134.64516693785376
150.49222948552134
172.96294729394305
202.86590366004611
210.96121225787257
177.9138732379595
153.0987861089366
135.40837500524214
123.45848673275022
115.81325047443727
111.17729339772903
108.50836603573124
107.04619158627322
106.28180306466244
105.89937484354917
105.71572231903195
105.63083357652803
105.59300731202269
105.57686857753737
105.57073972190838
105.57014738337445
105.57536309028738
105.59221796893138
105.63690387238886
105.74705847308861
106.00293164339476
106.56299358281692
107.71626407802295
109.94692291870504
113.99476899437879
120.88117883395434
131.8620370471735
148.2792312227595
171.31836048969456
201.73240833317246
206.19765995922845
174.09970273904437
149.84453106590627
132.46339470978364
120.67404922890232
113.10760056714392
108.5083645948224
105.85577485131503
104.40056754654024
103.63904666388572
103.25775813921013
103.07454927527235
102.98983670869065
102.95210393067357
102.936083541993
102.93023325245561
102.93036784705903
102.9374095999811
102.95858414623783
103.01283000598632
103.14268513209844
103.43620799389245
104.06274974455147
105.32412061108764
107.71626290754055
111.98531046291228
119.14887930765306
130.44629031560143
147.19179993116578
170.53933247082875
201.21533763922287
203.56135510095552
172.0286162095771
148.08632166852556
130.86786843164063
119.15832568832616
111.62897367367073
107.04619060195735
104.4005711334523
102.94820548022561
102.18780505568193
101.80694570056039
101.62390065220686
101.53925907483068
101.50158636112313
101.48568458621631
101.48013635505426
101.48103360822034
101.48989931215088
101.51516512261696
101.57797594142698
101.72450066583501
102.04807818125077
102.72465635262387
104.06275078466821
106.56299356230032
110.97167778839986
118.30011694914562
129.77491576292397
146.69392487977353
170.1954100268179
200.99529650674492
202.1722831487328
170.95604321321437
147.1790961805448
130.04188776452995
118.3701538728331
110.8575235172008
106.28180651511775
103.63904615089604
102.18780458200749
101.42782728895847
101.04712698300551
100.86414372064522
100.7795379663414
100.74191691576387
100.7261373717412
100.7208967103594
100.72253504097503
100.73308173771497
100.76191575650228
100.83178451565566
100.99127326817442
101.33689528363976
102.04807752306448
103.43620771598724
106.00293157137067
110.4925624238629
117.91109418026193
129.47732165474147
146.48082737346053
170.05334392933915
200.90754271657048
201.47306309763798
170.42466059577362
146.73062303930678
129.63212729512233
117.97752735019901
110.47216602076992
105.89937975208818
103.25775823671421
101.80694648387238
101.04712694330578
100.66648592280694
100.48352966398589
100.39894984429425
100.36137921500092
100.34572131049522
100.34077259604373
100.34307755330457
100.35505502527923
100.38675892449238
100.46198645821163
100.63076120215771
100.99127378862752
101.72450087778888
103.14268449445431
105.74705737546397
110.2799202548735
117.74386129637755
129.3536694818409
146.3953185051631
169.99830126882668
200.87467220118327
201.13554058006596
170.17190924492672
146.51759395394126
129.43677975918072
117.78966497876492
110.28733617863102
105.71571987528773
103.07454974895508
101.62389926973343
100.86414373827516
100.48352999792792
100.30059263073615
100.21603846854183
100.17851902259422
100.16297641962183
100.15828640469095
100.16114749521138
100.17425123733315
100.20808732339293
100.28707149799484
100.46198682192995
100.83178481152387
101.57797566601784
103.01283124582778
105.63690599015573
110.19112870266699
117.67627281612523
129.3053559824496
146.36303478288144
169.97821996600396
200.86315362244073
200.97899495842475
170.05615005928763
146.42008745451554
129.34700846108205
117.70308397154884
110.20198622359503
105.63083304234935
102.98983887376409
101.53925836012446
100.7795383482207
100.39894964964049
100.21603836409668
100.13151757512594
100.09405327922728
100.0786171413647
100.07414348297833
100.07743703357477
100.09136322095635
100.12666605024035
100.20808708748358
100.38675884032831
100.76191617631841
101.51516408019545
102.95858371585142
105.59221710236895
110.1562383515948
117.6506130967172
129.2876607229295
146.3516557989934
169.9714278147138
200.8595292710012
200.90890697486464
170.0049296371512
146.3769549979948
129.30717955244066
117.66455795929427
110.16394730020461
105.59300751940589
102.95210236833736
101.50158592128177
100.74191751961231
100.36137896005498
100.17851899924266
100.094053256382
100.05665726476617
100.04132313323942
100.03702540617586
100.0406363200086
100.05512279101235
100.09136318821626
100.17425129777446
100.35505497800108
100.73308199576803
101.48989921826042
102.93741079431517
105.5753654498071
110.14358047914256
117.64170738061654
129.28184685268215
146.34820175575936
169.96971726692567
200.85907402398377
200.87857927247208
169.98301462036633
146.3584601293461
129.29011433778535
117.64804279074568
110.14767022793674
105.57687232449089
102.93608311256581
101.48568454667033
100.72613724436373
100.34572129436455
100.16297649303014
100.07861711887412
100.04132315303409
100.02610078660267
100.02195147723738
100.025789035406
100.04063630195142
100.07743698023252
100.1611474094807
100.34307756887395
100.72253485730184
101.48103264368396
102.93036742363692
105.57014636759477
110.1400535078589
117.63962383555435
129.2809176623257
146.34814875742427
169.9704458130047
200.86075526200725
200.86585840705425
169.97394922004716
146.35087797644644
129.28316372233624
117.64139519515855
110.14129117705767
105.5707365380382
102.93023335400005
101.48013684174794
100.72089655220675
100.34077262972805
100.15828622371994
100.0741434867117
100.03702537479394
100.02195147736381
100.01794564783434
100.02195148491829
100.03702538629774
100.07414354417669
100.15828630414089
100.34077252493243
100.72089700956938
101.48013633372886
102.93023461889209
105.57073836933776
110.14128955966763
117.64140195211607
129.283157616798
146.35089444415541
169.97391867272722
200.86586052005254
200.86078358948447
169.97042619013612
146.3481688067997
129.2809338953325
117.6396216129632
110.14005973944083
105.570146475673
102.93036893574613
101.48103263641204
100.72253533598855
100.34307786694866
100.16114740006851
100.07743710581703
100.04063630993268
100.0257890426965
100.02195149083468
100.0261007990652
100.04132311469989
100.07861713902555
100.16297636300945
100.34572106500694
100.72613723124873
101.48568369552966
102.9360829483403
105.57686839636375
110.14767131888563
117.64803129538765
129.29009884360974
146.35846959097998
169.98297976941822
200.87857107798484
200.8591057190973
169.96969594868486
146.34821041396745
129.281836065794
117.64170958434292
110.14357702733149
105.57536303208062
102.93741163341085
101.4898982959221
100.73308219364671
100.35505480539467
100.17425117460182
100.0913631615923
100.05512277289024
100.04063633349651
100.03702541113569
100.04132313779628
100.05665728983833
100.09405329053396
100.17851894243182
100.36137917010548
100.74191721841558
101.50158652637239
102.95210322603103
105.59300626517488
110.16395080364927
117.66455244060417
129.30718797538995
146.37692501491998
170.00492081466484
200.9089281196362
200.85949342908168
169.97144020982293
146.35166566827004
129.28764778816833
117.65061644265435
110.1562344921496
105.59221744928176
102.95858238512884
101.51516432936063
100.76191642620547
100.38675864227321
100.20808726646173
100.12666601752505
100.09136320127914
100.0774370307511
100.07414348058131
100.07861712898672
100.0940533015848
100.13151754092881
100.21603832336757
100.39894978332993
100.77953820419063
101.53925883679787
102.98983767452192
105.63083548495466
110.20198177802288
117.70307788943774
129.3470205417007
146.42006951761053
170.0561529512228
200.9790300720274
200.86313265494286
169.97823070176094
146.36301770676988
129.3053584010018
117.6762667242778
110.19112444705108
105.63690738604377
103.01282954870618
101.57797605912342
100.83178447991475
100.46198657928865
100.28707144183308
100.20808728003107
100.17425127274407
100.16114750922156
100.15828640684668
100.16297642903605
100.17851903480015
100.21603843682176
100.30059272163243
100.48352982671607
100.86414400413781
101.62389960463175
103.07454881641686
105.71572144729049
110.2873318694693
117.78966944791792
129.43675720116016
146.51758730391845
170.17193031756204
201.13559898233055
200.87468106737566
169.99831030453544
146.39529817949239
129.3536735408395
117.74385487460265
110.27992082897146
105.74705502525232
103.14268500054476
101.72450138632742
100.99127341214862
100.63076158118915
100.46198641383015
100.38675888847742
100.3550550139183
100.34307753327033
100.34077259827286
100.34572133726216
100.36137919160045
100.39894983290282
100.48352972087572
100.66648582690449
101.04712714064121
101.80694572912212
103.25775944295248
105.89937681184378
110.472162069898
117.97753562040343
129.6321171668681
146.73063286733017
170.42470919489725
201.4730030099466
200.90754764946018
170.05331674947436
146.48082989827657
129.47731220999205
117.91108753255013
110.49256483081967
106.00292873901505
103.43620850036955
102.04807695130201
101.33689484699748
100.99127315918876
100.8317844148638
100.7619158367115
100.73308179943665
100.72253505029374
100.72089671255905
100.72613737124425
100.74191689557317
100.77953800696761
100.86414363532478
101.04712711995165
101.42782741248288
102.1878040504605
103.63904701727807
106.28180412306763
110.8575272109814
118.3701411672638
130.0418891226861
147.17912518070693
170.95611747586557
202.1722679134683
200.9953236444264
170.19540040512317
146.69394420860579
129.77491612740596
118.30012488743695
110.97167861584187
106.5629977498423
104.06275409715433
102.72465752004801
102.04808050647668
101.72450209954948
101.57797728195136
101.51516646052222
101.4899005971024
101.48103498111746
101.48013777626052
101.48568589906888
101.50158773100013
101.53926043173593
101.62390186993233
101.8069469957774
102.18780569639358
102.94820688520213
104.40056976854046
107.04618816492038
111.628978109494
119.15831803734149
130.8678747434375
148.08635786827196
172.0285577784113
203.5613320740505
201.21533041212783
170.53935659143883
147.1918013510822
130.44629129826953
119.14889079177688
111.9853115898861
107.71626852048213
105.32412309899595
104.06275197684037
103.43621051949121
103.14268752093206
103.01283274570332
102.95858691069571
102.93741218894382
102.93037039004591
102.93023577396738
102.9360860641344
102.95210648633518
102.98983919640514
103.0745518876164
103.25776056254693
103.63904868136301
104.40057008927329
105.85577520939991
108.50836813850503
113.10759323785008
120.6740501455433
132.46341344561418
149.84457848783072
174.09967299897892
206.19764442894095
201.73239229083143
171.3183791910189
148.2792265736118
131.8620452911356
120.88117780801353
113.99477434488368
109.94692761671034
107.71626555943803
106.5629973094158
106.0029340655636
105.7470606896065
105.63690605482827
105.59221999967998
105.57536538113212
105.57014981218056
105.57074189089958
105.57687094169235
105.59300961199598
105.63083576507812
105.71572462925667
105.89937690381812
106.28180562808244
107.04619285921008
108.50836746147844
111.17729953561722
115.8132502214596
123.45849686600887
135.4084065556952
153.09874402888408
177.91385230988791
210.96121420926463
202.8659113355795
172.9629319558243
150.49221798338863
134.64517358149544
124.18156966066208
117.72161794707354
113.994770461111
111.98531106341166
110.97167836819466
110.49256225183996
110.27992168698479
110.19112480365912
110.15624015542521
110.14358277884061
110.14005419411005
110.14129158811521
110.14767165940755
110.16395228713905
110.20197780569755
110.28733339956905
110.4721647971559
110.85752475660136
111.62897954732415
113.10759599591808
115.8132494492494
120.52762237476016
128.3321672393765
140.5883905279695
158.83354719464995
184.59055275607278
219.12912387129842
205.17690329893958
176.1898453709757
154.67827147265044
139.73503599606585
130.04222005435082
124.18157357217005
120.88117661141149
119.14887423862493
118.30011234995763
117.9110879433946
117.7438576825863
117.67626995809358
117.65060843505876
117.64170490591283
117.63961825214693
117.64139805094653
117.64802495207365
117.66454889929616
117.70307605398764
117.78966496774629
117.97752872417271
118.37013676042592
119.15831925921373
120.674048937015
123.45849164933375
128.33216227795504
136.44191839678672
149.24953491166394
168.42937873450134
195.6657479478401
232.37935421628248
209.54800949633596
182.06311151813065
162.02608467124392
148.3834640276257
139.7350806803448
134.6451836162835
131.8620631721021
130.44630735787754
129.77493695217746
129.4773550369357
129.35369010435488
129.3053793587101
129.28768025060745
129.28186900753164
129.28093618297493
129.28317964116977
129.29013212115635
129.30720773227807
129.34703640332336
129.43678622072562
129.63214079481136
130.04190794254416
130.86790382401966
132.46343539296376
135.40842320576598
140.58840391994707
149.2495575458655
162.9887417883546
183.6380946907007
213.02863976113474
252.6634653223234
217.21006744165956
191.97217752094062
173.98343959185328
162.02606387181123
154.67830452274094
150.49224066884878
148.27925635440062
147.19183352155318
146.6939411705747
146.48086062380568
146.39533263016446
146.3630535145417
146.35166995749842
146.34822033051185
146.34818319319143
146.35090983142655
146.3584918186438
146.37695252063466
146.42008972178766
146.51761446576043
146.73065233316186
147.1791372440217
148.08638663194327
149.84459778374654
153.0987675158778
158.83356072905212
168.42939331603483
183.63809783623765
206.43003888789903
238.70239654720666
281.905579334595
229.6714440145184
207.4913190001919
191.97215805915678
182.063100429423
176.18988011392042
172.96297428714723
171.31837086482798
170.5393584654513
170.19541321692208
170.05337016891744
169.9983016191469
169.97822693324113
169.9714583043191
169.9697222628426
169.97045805426103
169.97393652977402
169.98300458668365
170.00493766132783
170.05616183497924
170.1719485092818
170.42471743552323
170.95611529371308
172.0285915220977
174.09968773441233
177.91386699276518
184.59056244330068
195.66575556989883
213.02864812174732
238.70239098686494
274.45950363134745
321.52453661140925
248.83427134742928
229.67141711471925
217.2100547615789
209.5480118884405
205.1768959350924
202.86591383268683
201.7323994648619
201.2153481786876
200.99527847051007
200.9075499695989
200.8746853390155
200.86313997185763
200.8595258417482
200.85907505400587
200.8607632772222
200.86585814967953
200.87857874868055
200.90892751328863
200.97902022810675
201.13559784818895
201.47300661225876
202.172252135813
203.56134836634953
206.19764700388967
210.9612093494802
219.1291191666487
232.37935213075986
252.66345777486515
281.9055567386838
321.52451869225035
371.039551195227
