# vtk DataFile Version 2.0
Unstructured Grid Example
ASCII
DATASET UNSTRUCTURED_GRID

POINTS 961 float
0.150000006 -0.00839745998 0
0.146666661 -0.00839745998 0
0.143333331 -0.00839745998 0
0.140000001 -0.00839745998 0
0.13666667 -0.00839745998 0
0.13333334 -0.00839745998 0
0.129999995 -0.00839745998 0
0.126666665 -0.00839745998 0
0.123333335 -0.00839745998 0
0.119999997 -0.00839745998 0
0.116666667 -0.00839745998 0
0.113333337 -0.00839745998 0
0.109999999 -0.00839745998 0
0.106666669 -0.00839745998 0
0.103333332 -0.00839745998 0
0.100000001 -0.00839745998 0
0.0966666639 -0.00839745998 0
0.0933333337 -0.00839745998 0
0.0900000036 -0.00839745998 0
0.086666666 -0.00839745998 0
0.0833333358 -0.00839745998 0
0.0799999982 -0.00839745998 0
0.0766666681 -0.00839745998 0
0.0733333305 -0.00839745998 0
0.0700000003 -0.00839745998 0
0.0666666701 -0.00839745998 0
0.0633333325 -0.00839745998 0
0.0599999987 -0.00839745998 0
0.0566666685 -0.00839745998 0
0.0533333346 -0.00839745998 0
0.0500000007 -0.00839745998 0
0.148333326 -0.0112842107 0
0.144999996 -0.0112842107 0
0.141666666 -0.0112842107 0
0.138333336 -0.0112842107 0
0.135000005 -0.0112842107 0
0.13166666 -0.0112842107 0
0.12833333 -0.0112842107 0
0.125 -0.0112842107 0
0.12166667 -0.0112842107 0
0.118333332 -0.0112842107 0
0.115000002 -0.0112842107 0
0.111666664 -0.0112842107 0
0.108333334 -0.0112842107 0
0.104999997 -0.0112842107 0
0.101666667 -0.0112842107 0
0.0983333364 -0.0112842107 0
0.0949999988 -0.0112842107 0
0.0916666687 -0.0112842107 0
0.088333331 -0.0112842107 0
0.0850000009 -0.0112842107 0
0.0816666633 -0.0112842107 0
0.0783333331 -0.0112842107 0
0.075000003 -0.0112842107 0
0.0716666654 -0.0112842107 0
0.0683333352 -0.0112842107 0
0.0649999976 -0.0112842107 0
0.0616666675 -0.0112842107 0
0.0583333336 -0.0112842107 0
0.0549999997 -0.0112842107 0
0.0516666658 -0.0112842107 0
0.0483333319 -0.0112842107 0
0.146666661 -0.0141709624 0
0.143333331 -0.0141709624 0
0.140000001 -0.0141709624 0
0.13666667 -0.0141709624 0
0.13333334 -0.0141709624 0
0.129999995 -0.0141709624 0
0.126666665 -0.0141709624 0
0.123333335 -0.0141709624 0
0.119999997 -0.0141709624 0
0.116666667 -0.0141709624 0
0.113333337 -0.0141709624 0
0.109999999 -0.0141709624 0
0.106666669 -0.0141709624 0
0.103333332 -0.0141709624 0
0.100000001 -0.0141709624 0
0.0966666639 -0.0141709624 0
0.0933333337 -0.0141709624 0
0.0900000036 -0.0141709624 0
0.086666666 -0.0141709624 0
0.0833333358 -0.0141709624 0
0.0799999982 -0.0141709624 0
0.0766666681 -0.0141709624 0
0.0733333305 -0.0141709624 0
0.0700000003 -0.0141709624 0
0.0666666701 -0.0141709624 0
0.0633333325 -0.0141709624 0
0.0599999987 -0.0141709624 0
0.0566666685 -0.0141709624 0
0.0533333346 -0.0141709624 0
0.0500000007 -0.0141709624 0
0.0466666669 -0.0141709624 0
0.144999996 -0.0170577131 0
0.141666666 -0.0170577131 0
0.138333336 -0.0170577131 0
0.135000005 -0.0170577131 0
0.13166666 -0.0170577131 0
0.12833333 -0.0170577131 0
0.125 -0.0170577131 0
0.12166667 -0.0170577131 0
0.118333332 -0.0170577131 0
0.115000002 -0.0170577131 0
0.111666664 -0.0170577131 0
0.108333334 -0.0170577131 0
0.104999997 -0.0170577131 0
0.101666667 -0.0170577131 0
0.0983333364 -0.0170577131 0
0.0949999988 -0.0170577131 0
0.0916666687 -0.0170577131 0
0.088333331 -0.0170577131 0
0.0850000009 -0.0170577131 0
0.0816666633 -0.0170577131 0
0.0783333331 -0.0170577131 0
0.075000003 -0.0170577131 0
0.0716666654 -0.0170577131 0
0.0683333352 -0.0170577131 0
0.0649999976 -0.0170577131 0
0.0616666675 -0.0170577131 0
0.0583333336 -0.0170577131 0
0.0549999997 -0.0170577131 0
0.0516666658 -0.0170577131 0
0.0483333319 -0.0170577131 0
0.0450000018 -0.0170577131 0
0.143333331 -0.0199444648 0
0.140000001 -0.0199444648 0
0.13666667 -0.0199444648 0
0.13333334 -0.0199444648 0
0.129999995 -0.0199444648 0
0.126666665 -0.0199444648 0
0.123333335 -0.0199444648 0
0.119999997 -0.0199444648 0
0.116666667 -0.0199444648 0
0.113333337 -0.0199444648 0
0.109999999 -0.0199444648 0
0.106666669 -0.0199444648 0
0.103333332 -0.0199444648 0
0.100000001 -0.0199444648 0
0.0966666639 -0.0199444648 0
0.0933333337 -0.0199444648 0
0.0900000036 -0.0199444648 0
0.086666666 -0.0199444648 0
0.0833333358 -0.0199444648 0
0.0799999982 -0.0199444648 0
0.0766666681 -0.0199444648 0
0.0733333305 -0.0199444648 0
0.0700000003 -0.0199444648 0
0.0666666701 -0.0199444648 0
0.0633333325 -0.0199444648 0
0.0599999987 -0.0199444648 0
0.0566666685 -0.0199444648 0
0.0533333346 -0.0199444648 0
0.0500000007 -0.0199444648 0
0.0466666669 -0.0199444648 0
0.043333333 -0.0199444648 0
0.141666666 -0.0228312165 0
0.138333336 -0.0228312165 0
0.135000005 -0.0228312165 0
0.13166666 -0.0228312165 0
0.12833333 -0.0228312165 0
0.125 -0.0228312165 0
0.12166667 -0.0228312165 0
0.118333332 -0.0228312165 0
0.115000002 -0.0228312165 0
0.111666664 -0.0228312165 0
0.108333334 -0.0228312165 0
0.104999997 -0.0228312165 0
0.101666667 -0.0228312165 0
0.0983333364 -0.0228312165 0
0.0949999988 -0.0228312165 0
0.0916666687 -0.0228312165 0
0.088333331 -0.0228312165 0
0.0850000009 -0.0228312165 0
0.0816666633 -0.0228312165 0
0.0783333331 -0.0228312165 0
0.075000003 -0.0228312165 0
0.0716666654 -0.0228312165 0
0.0683333352 -0.0228312165 0
0.0649999976 -0.0228312165 0
0.0616666675 -0.0228312165 0
0.0583333336 -0.0228312165 0
0.0549999997 -0.0228312165 0
0.0516666658 -0.0228312165 0
0.0483333319 -0.0228312165 0
0.0450000018 -0.0228312165 0
0.0416666679 -0.0228312165 0
0.140000001 -0.0257179681 0
0.13666667 -0.0257179681 0
0.13333334 -0.0257179681 0
0.129999995 -0.0257179681 0
0.126666665 -0.0257179681 0
0.123333335 -0.0257179681 0
0.119999997 -0.0257179681 0
0.116666667 -0.0257179681 0
0.113333337 -0.0257179681 0
0.109999999 -0.0257179681 0
0.106666669 -0.0257179681 0
0.103333332 -0.0257179681 0
0.100000001 -0.0257179681 0
0.0966666639 -0.0257179681 0
0.0933333337 -0.0257179681 0
0.0900000036 -0.0257179681 0
0.086666666 -0.0257179681 0
0.0833333358 -0.0257179681 0
0.0799999982 -0.0257179681 0
0.0766666681 -0.0257179681 0
0.0733333305 -0.0257179681 0
0.0700000003 -0.0257179681 0
0.0666666701 -0.0257179681 0
0.0633333325 -0.0257179681 0
0.0599999987 -0.0257179681 0
0.0566666685 -0.0257179681 0
0.0533333346 -0.0257179681 0
0.0500000007 -0.0257179681 0
0.0466666669 -0.0257179681 0
0.043333333 -0.0257179681 0
0.0399999991 -0.0257179681 0
0.138333336 -0.0286047198 0
0.135000005 -0.0286047198 0
0.13166666 -0.0286047198 0
0.12833333 -0.0286047198 0
0.125 -0.0286047198 0
0.12166667 -0.0286047198 0
0.118333332 -0.0286047198 0
0.115000002 -0.0286047198 0
0.111666664 -0.0286047198 0
0.108333334 -0.0286047198 0
0.104999997 -0.0286047198 0
0.101666667 -0.0286047198 0
0.0983333364 -0.0286047198 0
0.0949999988 -0.0286047198 0
0.0916666687 -0.0286047198 0
0.088333331 -0.0286047198 0
0.0850000009 -0.0286047198 0
0.0816666633 -0.0286047198 0
0.0783333331 -0.0286047198 0
0.075000003 -0.0286047198 0
0.0716666654 -0.0286047198 0
0.0683333352 -0.0286047198 0
0.0649999976 -0.0286047198 0
0.0616666675 -0.0286047198 0
0.0583333336 -0.0286047198 0
0.0549999997 -0.0286047198 0
0.0516666658 -0.0286047198 0
0.0483333319 -0.0286047198 0
0.0450000018 -0.0286047198 0
0.0416666679 -0.0286047198 0
0.038333334 -0.0286047198 0
0.13666667 -0.0314914696 0
0.13333334 -0.0314914696 0
0.129999995 -0.0314914696 0
0.126666665 -0.0314914696 0
0.123333335 -0.0314914696 0
0.119999997 -0.0314914696 0
0.116666667 -0.0314914696 0
0.113333337 -0.0314914696 0
0.109999999 -0.0314914696 0
0.106666669 -0.0314914696 0
0.103333332 -0.0314914696 0
0.100000001 -0.0314914696 0
0.0966666639 -0.0314914696 0
0.0933333337 -0.0314914696 0
0.0900000036 -0.0314914696 0
0.086666666 -0.0314914696 0
0.0833333358 -0.0314914696 0
0.0799999982 -0.0314914696 0
0.0766666681 -0.0314914696 0
0.0733333305 -0.0314914696 0
0.0700000003 -0.0314914696 0
0.0666666701 -0.0314914696 0
0.0633333325 -0.0314914696 0
0.0599999987 -0.0314914696 0
0.0566666685 -0.0314914696 0
0.0533333346 -0.0314914696 0
0.0500000007 -0.0314914696 0
0.0466666669 -0.0314914696 0
0.043333333 -0.0314914696 0
0.0399999991 -0.0314914696 0
0.0366666652 -0.0314914696 0
0.135000005 -0.0343782231 0
0.13166666 -0.0343782231 0
0.12833333 -0.0343782231 0
0.125 -0.0343782231 0
0.12166667 -0.0343782231 0
0.118333332 -0.0343782231 0
0.115000002 -0.0343782231 0
0.111666664 -0.0343782231 0
0.108333334 -0.0343782231 0
0.104999997 -0.0343782231 0
0.101666667 -0.0343782231 0
0.0983333364 -0.0343782231 0
0.0949999988 -0.0343782231 0
0.0916666687 -0.0343782231 0
0.088333331 -0.0343782231 0
0.0850000009 -0.0343782231 0
0.0816666633 -0.0343782231 0
0.0783333331 -0.0343782231 0
0.075000003 -0.0343782231 0
0.0716666654 -0.0343782231 0
0.0683333352 -0.0343782231 0
0.0649999976 -0.0343782231 0
0.0616666675 -0.0343782231 0
0.0583333336 -0.0343782231 0
0.0549999997 -0.0343782231 0
0.0516666658 -0.0343782231 0
0.0483333319 -0.0343782231 0
0.0450000018 -0.0343782231 0
0.0416666679 -0.0343782231 0
0.038333334 -0.0343782231 0
0.0350000001 -0.0343782231 0
0.13333334 -0.0372649729 0
0.129999995 -0.0372649729 0
0.126666665 -0.0372649729 0
0.123333335 -0.0372649729 0
0.119999997 -0.0372649729 0
0.116666667 -0.0372649729 0
0.113333337 -0.0372649729 0
0.109999999 -0.0372649729 0
0.106666669 -0.0372649729 0
0.103333332 -0.0372649729 0
0.100000001 -0.0372649729 0
0.0966666639 -0.0372649729 0
0.0933333337 -0.0372649729 0
0.0900000036 -0.0372649729 0
0.086666666 -0.0372649729 0
0.0833333358 -0.0372649729 0
0.0799999982 -0.0372649729 0
0.0766666681 -0.0372649729 0
0.0733333305 -0.0372649729 0
0.0700000003 -0.0372649729 0
0.0666666701 -0.0372649729 0
0.0633333325 -0.0372649729 0
0.0599999987 -0.0372649729 0
0.0566666685 -0.0372649729 0
0.0533333346 -0.0372649729 0
0.0500000007 -0.0372649729 0
0.0466666669 -0.0372649729 0
0.043333333 -0.0372649729 0
0.0399999991 -0.0372649729 0
0.0366666652 -0.0372649729 0
0.0333333351 -0.0372649729 0
0.13166666 -0.0401517227 0
0.12833333 -0.0401517227 0
0.125 -0.0401517227 0
0.12166667 -0.0401517227 0
0.118333332 -0.0401517227 0
0.115000002 -0.0401517227 0
0.111666664 -0.0401517227 0
[...]
POINT_DATA 961
SCALARS Temp float 1
LOOKUP_TABLE default
398.74739707255577
349.8888693856856
309.4850603641394
278.2144991489543
255.20386616142173
239.0863946649882
228.3305149353515
221.4836285040664
217.31956269783862
214.8956574855016
213.54242924842282
212.81628400789123
212.44093976467371
212.2536519504161
212.16328728076013
212.12116650105153
212.10254870667083
212.09585968817743
212.09730216623055
212.10945817135635
212.14383814999925
212.22868771497838
212.4247709676296
212.85259899379676
213.73341519941127
215.4418397493371
218.5593932801334
223.90787967009123
232.53704430327025
245.65539026595138
264.77514644283815
349.8889096732615
302.92088890118976
265.7335181837162
237.60590801344514
217.34541968666923
203.44072546966908
194.34083474631268
188.65450035331094
185.25627780325067
183.31041246994263
182.24060892900877
181.6746813869472
181.3860057853158
181.24373557565698
181.17592475466913
181.1448350276976
181.13177615044302
181.12872331052594
181.13469737089068
181.1561153901256
181.2116752235497
181.34380244854947
181.6398829068103
182.26651698625466
183.517489983632
185.8695730561042
190.03009083540425
196.95083935527953
207.7818419582435
223.76081710946562
245.6554100955414
309.48501917342185
265.7334995417712
231.62056388049172
206.21082143425494
188.14584917481648
175.8872064329594
167.94177487122636
163.01712549484694
160.09385224138785
158.42906448608463
157.51773222287525
157.0372367977569
156.7927544215513
156.67250692593416
156.61535362829883
156.5894402478148
156.57933825504514
156.57924402391862
156.59069912786677
156.6245561400811
156.7082928791359
156.90119780685487
157.32074694221092
158.18257153783918
159.8523229488046
162.8995157122639
168.13279862010367
176.58803161761355
189.4403087601516
207.78183261172464
232.53705406699916
278.21444648710354
237.6058810162332
206.21082327155946
182.98712895393703
166.56009865528821
155.4500648348262
148.26200921299272
143.80911619660472
141.16453263372048
139.65648397420932
138.82937679229818
138.3922818342496
138.16931903668916
138.0593994134042
138.0071407698771
137.98375412949022
137.97564965003264
137.97871010098822
137.99712132706009
138.04688366991428
138.16553377957572
138.43080810942217
138.9912298998746
140.10970420400184
142.215783859853
145.95319908765532
152.19935008721703
162.02770291110522
176.58804661551912
196.9508523475451
223.9078712800163
255.20381968188778
217.3453962784092
188.14583719092238
166.56015860556082
151.2791243626142
140.92361649339756
134.2047934839156
130.0285455509573
127.53916900852222
126.11425698365625
125.32982105164956
124.91378570036389
124.7008616795521
124.59561990530277
124.54561487330248
124.52366553836272
124.517371257251
124.52416573054478
124.55111823766727
124.61990832363934
124.77873080726562
125.1238026358251
125.83280324623024
127.20980998970106
129.7350754469857
134.10407213563718
141.23204411216366
152.19934364055254
168.13279425682558
190.03008893143584
218.5593993359419
239.08634937023126
203.44075783225267
175.88724911906178
155.45003555982802
140.92360528486523
131.03635788216525
124.59299042893603
120.57085319472475
118.16376202384244
116.7809161673
116.01714851276142
115.61090406793234
115.40248850308635
115.29932825906732
115.25044699703099
115.22956896475868
115.22522146178068
115.23640186709271
115.27322975821582
115.36321316612064
115.56492908214528
115.9915120208188
116.84550360578777
118.46325275944923
121.36065994485105
126.26406910313354
134.10406951886284
145.9532003484999
162.89952268086222
185.86955239498138
215.44183315278747
228.33052247588756
194.34085574632306
167.94181793859943
148.26197493406653
134.20478053953266
124.59298734079029
118.30332252178881
114.36300860686922
111.9975836397955
110.63511042716057
109.8809409269089
109.47907574273263
109.2726291391794
109.17041837191174
109.12221962157163
109.10234936401923
109.10017020869827
109.11625123707717
109.1637446462167
109.27568329700503
109.5199146823428
110.02369574607957
111.00877002883246
112.83414139107278
116.03767785163373
121.36065671304591
129.73506848575755
142.2157736074607
159.85232094970453
183.51748772837468
213.73342405024013
221.48364317575258
188.65452594266964
163.0170721785983
143.80908656172357
130.028544172531
120.57086223104221
114.36300653497078
110.46421622926107
108.11900197827427
106.76600573433343
106.0161252437785
105.61615727000081
105.41056627685268
105.30884180390532
105.2611792402699
105.2423516599804
105.24250876352323
105.26372802806026
105.32195893066239
105.45505277250699
105.73843575647639
106.31009528104767
107.40515465793226
109.39672566346714
112.83413973661013
118.46325046450175
127.20981139916806
140.10970529380924
158.18255752745367
182.26649796753398
212.85258912875145
217.31956977350723
185.25631057182315
160.09380763019894
141.16451508591638
127.53917074031013
118.16375389966319
111.99758193495609
108.11900753592248
105.78322189277411
104.43447042897533
103.68644477970847
103.28728269924275
103.08208176456876
102.9806670250613
102.93350300701479
102.91575273952232
102.91828912739213
102.94454406331874
103.01285124707313
103.16492067702272
103.48183937446404
104.10899232342884
105.28984950725659
107.40515618994745
111.00877031053716
116.84550284195242
125.83280194597891
138.9912258367106
157.32075060464925
181.6398895411071
212.42478970222683
214.89569272960222
183.31034868253064
158.42904226566918
139.65648091531276
126.11426894935099
116.78091528620921
110.6351150630735
106.7660046253871
104.43446951318117
103.08755696810238
102.34031713838377
101.94150270636648
101.73650869183075
101.63534184552863
101.58866532593821
101.57198090042563
101.57679123368042
101.6076562348631
101.68478195558714
101.85271248593187
102.19638946096043
102.86579721821809
104.10899126770559
106.31009496027649
110.02369556701689
115.9915115809114
125.12380253669136
138.4307917832013
156.90118344385016
181.34378579268468
212.228679070916
213.54248753924182
182.24055929709345
157.51772047296632
138.8293821114725
125.32981198850555
116.0171498330469
109.88094733320577
106.0161254369462
103.68644608738703
102.34031704716273
101.59341284054443
101.19476590491004
100.9899148006251
100.88897593140796
100.84277046038808
100.82708378038079
100.8339311695832
100.86874163657313
100.95307376581246
101.13337587180159
101.49697087649454
102.19639048691164
103.48183971152676
105.73843477614068
109.51991308073482
115.56492786318051
124.77872798536927
138.16553209852808
156.70829791244972
181.21168372328086
212.14382485054193
212.81622440907992
181.67464921444738
157.03723503131388
138.39229397792948
124.91377802397912
115.61090760573155
109.47907216707006
105.6161579722567
103.28728036576256
101.94150270847443
101.19476663173391
100.79623314071142
100.59151351755882
100.49079905721403
100.44503598142175
100.43023361755378
100.43879484179753
100.4767667719944
100.56660552899152
100.7559267758186
101.13337662362134
101.8527130549111
103.16492022295927
105.45505479023247
109.27568638767272
115.36321893869247
124.61990390873993
138.0468781321497
156.6245572727218
181.15611710097716
212.10947212311905
212.44091226300486
181.38600083442907
156.79277184497215
138.16930695115923
124.70086373209905
115.40249939234644
109.27262839604246
105.41056946486434
103.0820806238472
101.73650942060948
100.98991438485865
100.59151328134291
100.38695194409163
100.2864751356104
100.24112316692963
100.2270713556246
100.23699454047821
100.2773459349318
100.37112779692733
100.56660497607069
100.95307358167096
101.68478276047387
103.01284951469525
105.32195825405869
109.16374341943816
115.27322775830335
124.55111667866052
137.99711981951015
156.5907055898501
181.1346747917016
212.0973058451717
212.25362992512862
181.24373466127255
156.6725296494684
138.05938834529618
124.59562347137827
115.29932180670916
109.17041876157843
105.30883940928457
102.98066630264329
101.63534296866385
100.88897541250057
100.49079902927411
100.28647507978363
100.18628320191615
100.14132941462475
100.12790531703338
100.13886454447507
100.18090859836754
100.2773458538634
100.47676691759428
100.86874155716664
101.60765673475709
102.94454390582362
105.26372985894324
109.11625455481952
115.23639900408519
124.52416190521384
137.97870545233746
156.57924518073887
181.12872706710382
212.09585899706536
212.16328652458307
181.17594383717918
156.61534050803476
138.0071414260499
124.54562901777544
115.25044546795942
109.12222479986198
105.26117867722141
102.93350296627281
101.588665087339
100.84277044456734
100.44503614945187
100.24112311054262
100.14132947227411
100.096807748166
100.08393019121456
100.0956664669028
100.13886449561733
100.23699440631852
100.43879464736541
100.83393119570974
101.57679088112715
102.91828750344145
105.24250811983501
109.10016886186916
115.22522058417711
124.51737051054079
137.9756493142299
156.57932286896894
181.13177237419725
212.10254051625296
212.1211670439249
181.14485698694068
156.58942796117512
137.9837570737236
124.52365508314223
115.22956873053978
109.10234489502793
105.24235187887011
102.9157535652883
101.57198064209572
100.82708386628671
100.43023320408054
100.22707137159489
100.12790523001821
100.08393019239492
100.07158626972192
100.08393021496526
100.12790526387292
100.22707151120682
100.43023338803033
100.82708364516976
101.57198146424972
102.91575271465206
105.2423537563532
109.10234745618025
115.22956646581595
124.5236631538441
137.98374994048294
156.5894447142567
181.14482547175095
212.12116871431468
212.10257012203917
181.13175293030963
156.57934467918653
137.9756675285028
124.51736807685701
115.2252285924579
109.10016907831587
105.24251052056832
102.91828749707847
101.57679180940508
100.83393182002341
100.43879463774937
100.23699473180507
100.13886452164117
100.09566648933367
100.08393023227309
100.09680778474343
100.14132936597406
100.241123164507
100.44503585923987
100.84276996729768
101.58866508025497
102.93350149981862
105.26117839843066
109.1222193202835
115.25044669045374
124.54561526865841
138.00712379132074
156.6153508260962
181.175908458574
212.16327914387355
212.09589120655244
181.12870573628956
156.57925439023518
137.97869319974683
124.52416471561156
115.2363945516937
109.11625127087196
105.26373114166323
102.94454240743575
101.60765711205465
100.86874120147041
100.47676664809157
100.27734578202029
100.18090854795675
100.13886458434791
100.12790532930981
100.14132942823481
100.18628326940201
100.2864751665839
100.49079889775724
100.88897583168402
101.63534241337086
102.98066728995404
105.30884072951895
109.17041690975658
115.29932642037454
124.59561694940002
138.0593978522448
156.6724987680111
181.24372692046344
212.25365310824972
212.0972693736406
181.1346872151196
156.59071582162872
137.9971055246684
124.55112065904356
115.27322289021349
109.16374402954534
105.32195621338863
103.01284997418628
101.68478321978056
100.95307317903627
100.56660538513238
100.37112771289051
100.27734588106372
100.23699453268611
100.22707135037142
100.24112312805329
100.286475194249
100.38695185852085
100.59151318151216
100.9899146665146
101.7365091314194
103.08208141734386
105.41056767905887
109.27263179701472
115.40249393200219
124.70085679060048
138.16932161838307
156.79275401220568
181.38600588194396
212.4409500554476
212.10945085582594
181.15612792799354
156.6245390544939
138.0468811772444
124.61989670070126
115.36321363563226
109.27568833640997
105.45505227876485
103.164920888958
101.85271243230075
101.13337614353985
100.75592663849277
100.56660542226143
100.47676686936313
100.4387948642462
100.43023362123684
100.44503601013504
100.49079909162433
100.59151343901604
100.7962333423249
101.19476628524048
101.9415031982591
103.28728097166176
105.61615657229524
109.47907462952523
115.6109024490763
124.91378388463777
138.39227002665902
157.03722939545372
181.67467256479756
212.8162846806195
212.14383401045944
181.21169312446492
156.70827687194102
138.1655367696999
124.77872050511303
115.56492877959874
109.51990978423586
105.73843559500878
103.4818405435192
102.19638979311455
101.49697164934334
101.13337575295105
100.95307367381338
100.86874160931565
100.83393112726652
100.82708378189453
100.84277051518181
100.8889758752116
100.98991476091935
101.19476603858968
101.59341264172133
102.340317431087
103.68644490361046
106.01612737744883
109.88094356224941
116.0171451714141
125.32982284218353
138.8293714394863
157.5177316790265
182.2406090545286
213.5424260389792
212.22868473487753
181.3437585853012
156.9011866685479
138.4307813477879
125.12379482520437
115.9915146308523
110.02369172512543
106.31009614671568
104.1089902852625
102.86579643725389
102.19638922355743
101.85271227492535
101.68478215307005
101.60765631774397
101.57679124334875
101.5719809105806
101.5886653296484
101.6353418001237
101.73650879034756
101.94150251510226
102.3403174169134
103.08755725310456
104.43446867783963
106.76600617731546
110.63511200170923
116.78092026391737
126.1142542618904
139.65648244357382
158.42907264834864
183.31042367194718
214.895674208179
212.42481747389027
181.63988058667852
157.32077144588573
138.99122676088237
125.83281193411456
116.8455041978448
111.0087764508701
107.40516132795497
105.2898514475826
104.10899636809374
103.48184173266776
103.16492291196434
103.0128535055001
102.94454623269785
102.91829144723806
102.91575511207053
102.93350520844206
102.980669290949
103.08208403471149
103.28728467750129
103.68644693848763
104.43447143540003
105.78322431301004
108.11900582523398
111.99757899801524
118.16376040159352
127.53916182766986
141.16452212106933
160.0938454542396
185.25624923382367
217.3195448167752
212.8525821772673
182.26652309447374
158.18255954680484
140.10970711553222
127.2098254326865
118.46325244390304
112.83414772745469
109.39672933474296
107.40515802178837
106.3100991053152
105.73843939293005
105.455057080302
105.3219630795744
105.26373196116839
105.24251264528874
105.24235550223497
105.26118307755858
105.3088456973954
105.41056999036756
105.61616121918479
106.01612892736502
106.766008634282
108.11900591998011
110.46421680204035
114.36301162534082
120.57085310240781
130.0285451945987
143.8091073017829
163.0171229892271
188.6544936501123
221.4836270361358
213.73340856204243
183.51750687143775
159.8523165219903
142.2157832564599
129.7350674802237
121.3606637353037
116.03768422406073
112.83414335331649
111.00877559015682
110.02369894864155
109.5199176856554
109.27568632350686
109.16374747932517
109.11625443882885
109.10017353562377
109.10235238849762
109.12222286594044
109.17042155608347
109.27263214099412
109.47907894937173
109.88094363541305
110.63511411718925
111.99758516269702
114.36301021938993
118.30333089739095
124.59298635775029
134.2047918438536
148.26200935537878
167.94177111161125
194.34083255185675
228.33052436089167
215.44184108693997
185.86953697053755
162.89951080093988
145.95320753672715
134.1040629855136
126.26407245699689
121.36065829429948
118.46325132435881
116.84550313023769
115.99151140248485
115.56492973049471
115.36321375969848
115.27322994663048
115.23640193555788
115.2252214462118
115.22956904403426
115.25044711931476
115.29932834662036
115.40248891058
115.61090419291757
116.01714854474291
116.7809171532227
118.16376145142885
120.57085620667515
124.5929850884699
131.03636057182942
140.92362305714713
155.45007559837978
175.88722014910863
203.44073481721256
239.08635123506122
218.55939726170118
190.03006321456292
168.13278911437035
152.1993268615169
141.23203945905902
134.104067742618
129.73506562366325
127.2098056571993
125.83279601725266
125.12379515222595
124.77872333592863
124.61990048081401
124.55111108230847
124.52415881899918
124.51736384152564
124.52365855080073
124.54560773555349
124.59561260015309
124.70085460501524
124.91377851426279
125.3298145240657
126.11424932590586
127.53916226678116
130.02854337892336
134.20478532607277
140.92361730256422
151.27914147975406
166.56010925521056
188.14580118688372
217.34537303776534
255.20381832255276
223.90788326576063
196.9508662410681
176.5880814936664
162.02771921533662
152.19937707932482
145.95321868861606
142.2158031069559
140.109724195101
138.99124941658306
138.43082939676913
138.16555507612654
138.04690429122317
137.99714170376637
137.97873031281125
137.9756700981605
137.9837745719056
138.0071612283488
138.05942023021584
138.16933929853644
138.3923021664832
138.829397555349
139.6565033515226
141.16455352313156
143.80913038017195
148.26202704205488
155.45009038265422
166.56013565645276
182.98710190226586
206.21078892086612
237.60585217455255
278.2144501781087
232.53706457297238
207.78186539123712
189.44032470780996
176.58805940221734
168.13282515267005
162.89953460405502
159.85234798960767
158.18259291056074
157.32076783300928
156.90121857345073
156.7083129514115
156.62457715263326
156.59072050072743
156.5792647404944
156.57935959250358
156.58946131849626
156.61537446959218
156.67252790837153
156.79277538048484
157.03725793964176
157.51775224102062
158.42908515581314
160.09387485589016
163.0171419850089
167.94179541070866
175.8872347117753
188.14581714194716
206.2107903747456
231.62052880997004
265.7334671770912
309.4850155395666
245.6554126190466
223.76084064954085
207.7818448514746
196.95085424998595
190.03009784057275
185.86957992160708
183.51749781044012
182.26652440358444
181.6398927595557
181.34381227202917
181.21168406610053
181.1561239676734
181.13470575020634
181.12873216045136
181.13178490317034
181.1448438383056
181.17593396735757
181.24374406219056
181.38601461718594
181.67469053579038
182.24061709960048
183.31042161001028
185.25628214684735
188.65450739404037
194.34084685226063
203.44074528557627
217.34538230772657
237.60585828426895
265.7334606085025
302.9208327757292
349.8888030789739
264.77516285952925
245.6553848932644
232.53705092131628
223.90788527589933
218.5593903908353
215.44184370914553
213.73341501389962
212.8525994913038
212.4247712750128
212.22868618586062
212.14383806852345
212.109458314184
212.09730212634312
212.09586009018946
212.1025487956894
212.12116659171994
212.16328683392288
212.2536522315014
212.44093986699104
212.81628318236318
213.54242916479114
214.89565911440317
217.31955985458404
221.48362810593477
228.33051863810545
239.08634594443564
255.20381823065017
278.2144409300782
309.48499196832137
349.8887851750801
398.7469856123589
