# vtk DataFile Version 2.0
Unstructured Grid Example
ASCII
DATASET UNSTRUCTURED_GRID

POINTS 961 float
0.150000006 -0.00839745998 0
0.146666661 -0.00839745998 0
0.143333331 -0.00839745998 0
0.140000001 -0.00839745998 0
0.13666667 -0.00839745998 0
0.13333334 -0.00839745998 0
0.129999995 -0.00839745998 0
0.126666665 -0.00839745998 0
0.123333335 -0.00839745998 0
0.119999997 -0.00839745998 0
0.116666667 -0.00839745998 0
0.113333337 -0.00839745998 0
0.109999999 -0.00839745998 0
0.106666669 -0.00839745998 0
0.103333332 -0.00839745998 0
0.100000001 -0.00839745998 0
0.0966666639 -0.00839745998 0
0.0933333337 -0.00839745998 0
0.0900000036 -0.00839745998 0
0.086666666 -0.00839745998 0
0.0833333358 -0.00839745998 0
0.0799999982 -0.00839745998 0
0.0766666681 -0.00839745998 0
0.0733333305 -0.00839745998 0
0.0700000003 -0.00839745998 0
0.0666666701 -0.00839745998 0
0.0633333325 -0.00839745998 0
0.0599999987 -0.00839745998 0
0.0566666685 -0.00839745998 0
0.0533333346 -0.00839745998 0
0.0500000007 -0.00839745998 0
0.148333326 -0.0112842107 0
0.144999996 -0.0112842107 0
0.141666666 -0.0112842107 0
0.138333336 -0.0112842107 0
0.135000005 -0.0112842107 0
0.13166666 -0.0112842107 0
0.12833333 -0.0112842107 0
0.125 -0.0112842107 0
0.12166667 -0.0112842107 0
0.118333332 -0.0112842107 0
0.115000002 -0.0112842107 0
0.111666664 -0.0112842107 0
0.108333334 -0.0112842107 0
0.104999997 -0.0112842107 0
0.101666667 -0.0112842107 0
0.0983333364 -0.0112842107 0
0.0949999988 -0.0112842107 0
0.0916666687 -0.0112842107 0
0.088333331 -0.0112842107 0
0.0850000009 -0.0112842107 0
0.0816666633 -0.0112842107 0
0.0783333331 -0.0112842107 0
0.075000003 -0.0112842107 0
0.0716666654 -0.0112842107 0
0.0683333352 -0.0112842107 0
0.0649999976 -0.0112842107 0
0.0616666675 -0.0112842107 0
0.0583333336 -0.0112842107 0
0.0549999997 -0.0112842107 0
0.0516666658 -0.0112842107 0
0.0483333319 -0.0112842107 0
0.146666661 -0.0141709624 0
0.143333331 -0.0141709624 0
0.140000001 -0.0141709624 0
0.13666667 -0.0141709624 0
0.13333334 -0.0141709624 0
0.129999995 -0.0141709624 0
0.126666665 -0.0141709624 0
0.123333335 -0.0141709624 0
0.119999997 -0.0141709624 0
0.116666667 -0.0141709624 0
0.113333337 -0.0141709624 0
0.109999999 -0.0141709624 0
0.106666669 -0.0141709624 0
0.103333332 -0.0141709624 0
0.100000001 -0.0141709624 0
0.0966666639 -0.0141709624 0
0.0933333337 -0.0141709624 0
0.0900000036 -0.0141709624 0
0.086666666 -0.0141709624 0
0.0833333358 -0.0141709624 0
0.0799999982 -0.0141709624 0
0.0766666681 -0.0141709624 0
0.0733333305 -0.0141709624 0
0.0700000003 -0.0141709624 0
0.0666666701 -0.0141709624 0
0.0633333325 -0.0141709624 0
0.0599999987 -0.0141709624 0
0.0566666685 -0.0141709624 0
0.0533333346 -0.0141709624 0
0.0500000007 -0.0141709624 0
0.0466666669 -0.0141709624 0
0.144999996 -0.0170577131 0
0.141666666 -0.0170577131 0
0.138333336 -0.0170577131 0
0.135000005 -0.0170577131 0
0.13166666 -0.0170577131 0
0.12833333 -0.0170577131 0
0.125 -0.0170577131 0
0.12166667 -0.0170577131 0
0.118333332 -0.0170577131 0
0.115000002 -0.0170577131 0
0.111666664 -0.0170577131 0
0.108333334 -0.0170577131 0
0.104999997 -0.0170577131 0
0.101666667 -0.0170577131 0
0.0983333364 -0.0170577131 0
0.0949999988 -0.0170577131 0
0.0916666687 -0.0170577131 0
0.088333331 -0.0170577131 0
0.0850000009 -0.0170577131 0
0.0816666633 -0.0170577131 0
0.0783333331 -0.0170577131 0
0.075000003 -0.0170577131 0
0.0716666654 -0.0170577131 0
0.0683333352 -0.0170577131 0
0.0649999976 -0.0170577131 0
0.0616666675 -0.0170577131 0
0.0583333336 -0.0170577131 0
0.0549999997 -0.0170577131 0
0.0516666658 -0.0170577131 0
0.0483333319 -0.0170577131 0
0.0450000018 -0.0170577131 0
0.143333331 -0.0199444648 0
0.140000001 -0.0199444648 0
0.13666667 -0.0199444648 0
0.13333334 -0.0199444648 0
0.129999995 -0.0199444648 0
0.126666665 -0.0199444648 0
0.123333335 -0.0199444648 0
0.119999997 -0.0199444648 0
0.116666667 -0.0199444648 0
0.113333337 -0.0199444648 0
0.109999999 -0.0199444648 0
0.106666669 -0.0199444648 0
0.103333332 -0.0199444648 0
0.100000001 -0.0199444648 0
0.0966666639 -0.0199444648 0
0.0933333337 -0.0199444648 0
0.0900000036 -0.0199444648 0
0.086666666 -0.0199444648 0
0.0833333358 -0.0199444648 0
0.0799999982 -0.0199444648 0
0.0766666681 -0.0199444648 0
0.0733333305 -0.0199444648 0
0.0700000003 -0.0199444648 0
0.0666666701 -0.0199444648 0
0.0633333325 -0.0199444648 0
0.0599999987 -0.0199444648 0
0.0566666685 -0.0199444648 0
0.0533333346 -0.0199444648 0
0.0500000007 -0.0199444648 0
0.0466666669 -0.0199444648 0
0.043333333 -0.0199444648 0
0.141666666 -0.0228312165 0
0.138333336 -0.0228312165 0
0.135000005 -0.0228312165 0
0.13166666 -0.0228312165 0
0.12833333 -0.0228312165 0
0.125 -0.0228312165 0
0.12166667 -0.0228312165 0
0.118333332 -0.0228312165 0
0.115000002 -0.0228312165 0
0.111666664 -0.0228312165 0
0.108333334 -0.0228312165 0
0.104999997 -0.0228312165 0
0.101666667 -0.0228312165 0
0.0983333364 -0.0228312165 0
0.0949999988 -0.0228312165 0
0.0916666687 -0.0228312165 0
0.088333331 -0.0228312165 0
0.0850000009 -0.0228312165 0
0.0816666633 -0.0228312165 0
0.0783333331 -0.0228312165 0
0.075000003 -0.0228312165 0
0.0716666654 -0.0228312165 0
0.0683333352 -0.0228312165 0
0.0649999976 -0.0228312165 0
0.0616666675 -0.0228312165 0
0.0583333336 -0.0228312165 0
0.0549999997 -0.0228312165 0
0.0516666658 -0.0228312165 0
0.0483333319 -0.0228312165 0
0.0450000018 -0.0228312165 0
0.0416666679 -0.0228312165 0
0.140000001 -0.0257179681 0
0.13666667 -0.0257179681 0
0.13333334 -0.0257179681 0
0.129999995 -0.0257179681 0
0.126666665 -0.0257179681 0
0.123333335 -0.0257179681 0
0.119999997 -0.0257179681 0
0.116666667 -0.0257179681 0
0.113333337 -0.0257179681 0
0.109999999 -0.0257179681 0
0.106666669 -0.0257179681 0
0.103333332 -0.0257179681 0
0.100000001 -0.0257179681 0
0.0966666639 -0.0257179681 0
0.0933333337 -0.0257179681 0
0.0900000036 -0.0257179681 0
0.086666666 -0.0257179681 0
0.0833333358 -0.0257179681 0
0.0799999982 -0.0257179681 0
0.0766666681 -0.0257179681 0
0.0733333305 -0.0257179681 0
0.0700000003 -0.0257179681 0
0.0666666701 -0.0257179681 0
0.0633333325 -0.0257179681 0
0.0599999987 -0.0257179681 0
0.0566666685 -0.0257179681 0
0.0533333346 -0.0257179681 0
0.0500000007 -0.0257179681 0
0.0466666669 -0.0257179681 0
0.043333333 -0.0257179681 0
0.0399999991 -0.0257179681 0
0.138333336 -0.0286047198 0
0.135000005 -0.0286047198 0
0.13166666 -0.0286047198 0
0.12833333 -0.0286047198 0
0.125 -0.0286047198 0
0.12166667 -0.0286047198 0
0.118333332 -0.0286047198 0
0.115000002 -0.0286047198 0
0.111666664 -0.0286047198 0
0.108333334 -0.0286047198 0
0.104999997 -0.0286047198 0
0.101666667 -0.0286047198 0
0.0983333364 -0.0286047198 0
0.0949999988 -0.0286047198 0
0.0916666687 -0.0286047198 0
0.088333331 -0.0286047198 0
0.0850000009 -0.0286047198 0
0.0816666633 -0.0286047198 0
0.0783333331 -0.0286047198 0
0.075000003 -0.0286047198 0
0.0716666654 -0.0286047198 0
0.0683333352 -0.0286047198 0
0.0649999976 -0.0286047198 0
0.0616666675 -0.0286047198 0
0.0583333336 -0.0286047198 0
0.0549999997 -0.0286047198 0
0.0516666658 -0.0286047198 0
0.0483333319 -0.0286047198 0
0.0450000018 -0.0286047198 0
0.0416666679 -0.0286047198 0
0.038333334 -0.0286047198 0
0.13666667 -0.0314914696 0
0.13333334 -0.0314914696 0
0.129999995 -0.0314914696 0
0.126666665 -0.0314914696 0
0.123333335 -0.0314914696 0
0.119999997 -0.0314914696 0
0.116666667 -0.0314914696 0
0.113333337 -0.0314914696 0
0.109999999 -0.0314914696 0
0.106666669 -0.0314914696 0
0.103333332 -0.0314914696 0
0.100000001 -0.0314914696 0
0.0966666639 -0.0314914696 0
0.0933333337 -0.0314914696 0
0.0900000036 -0.0314914696 0
0.086666666 -0.0314914696 0
0.0833333358 -0.0314914696 0
0.0799999982 -0.0314914696 0
0.0766666681 -0.0314914696 0
0.0733333305 -0.0314914696 0
0.0700000003 -0.0314914696 0
0.0666666701 -0.0314914696 0
0.0633333325 -0.0314914696 0
0.0599999987 -0.0314914696 0
0.0566666685 -0.0314914696 0
0.0533333346 -0.0314914696 0
0.0500000007 -0.0314914696 0
0.0466666669 -0.0314914696 0
0.043333333 -0.0314914696 0
0.0399999991 -0.0314914696 0
0.0366666652 -0.0314914696 0
0.135000005 -0.0343782231 0
0.13166666 -0.0343782231 0
0.12833333 -0.0343782231 0
0.125 -0.0343782231 0
0.12166667 -0.0343782231 0
0.118333332 -0.0343782231 0
0.115000002 -0.0343782231 0
0.111666664 -0.0343782231 0
0.108333334 -0.0343782231 0
0.104999997 -0.0343782231 0
0.101666667 -0.0343782231 0
0.0983333364 -0.0343782231 0
0.0949999988 -0.0343782231 0
0.0916666687 -0.0343782231 0
0.088333331 -0.0343782231 0
0.0850000009 -0.0343782231 0
0.0816666633 -0.0343782231 0
0.0783333331 -0.0343782231 0
0.075000003 -0.0343782231 0
0.0716666654 -0.0343782231 0
0.0683333352 -0.0343782231 0
0.0649999976 -0.0343782231 0
0.0616666675 -0.0343782231 0
0.0583333336 -0.0343782231 0
0.0549999997 -0.0343782231 0
0.0516666658 -0.0343782231 0
0.0483333319 -0.0343782231 0
0.0450000018 -0.0343782231 0
0.0416666679 -0.0343782231 0
0.038333334 -0.0343782231 0
0.0350000001 -0.0343782231 0
0.13333334 -0.0372649729 0
0.129999995 -0.0372649729 0
0.126666665 -0.0372649729 0
0.123333335 -0.0372649729 0
0.119999997 -0.0372649729 0
0.116666667 -0.0372649729 0
0.113333337 -0.0372649729 0
0.109999999 -0.0372649729 0
0.106666669 -0.0372649729 0
0.103333332 -0.0372649729 0
0.100000001 -0.0372649729 0
0.0966666639 -0.0372649729 0
0.0933333337 -0.0372649729 0
0.0900000036 -0.0372649729 0
0.086666666 -0.0372649729 0
0.0833333358 -0.0372649729 0
0.0799999982 -0.0372649729 0
0.0766666681 -0.0372649729 0
0.0733333305 -0.0372649729 0
0.0700000003 -0.0372649729 0
0.0666666701 -0.0372649729 0
0.0633333325 -0.0372649729 0
0.0599999987 -0.0372649729 0
0.0566666685 -0.0372649729 0
0.0533333346 -0.0372649729 0
0.0500000007 -0.0372649729 0
0.0466666669 -0.0372649729 0
0.043333333 -0.0372649729 0
0.0399999991 -0.0372649729 0
0.0366666652 -0.0372649729 0
0.0333333351 -0.0372649729 0
0.13166666 -0.0401517227 0
0.12833333 -0.0401517227 0
0.125 -0.0401517227 0
0.12166667 -0.0401517227 0
0.118333332 -0.0401517227 0
0.115000002 -0.0401517227 0
0.111666664 -0.0401517227 0
[...]
POINT_DATA 961
SCALARS Temp float 1
LOOKUP_TABLE default
400.345837504631
351.0617649853693
309.78828837604084
277.7654441713036
254.19774036363873
237.7118864201428
226.73538442299088
219.76818665689632
215.54431629365183
213.0933991270015
211.72919769848528
210.99914390025828
210.6226574899508
210.43515967182347
210.3448198323097
210.30271938541998
210.28400868837917
210.2769605104186
210.2774145215021
210.287104712313
210.31573044505356
210.38795894448617
210.55810559893413
210.9361844167135
211.72829735354836
213.2902889729129
216.18489591115548
221.22156871629844
229.452213294
242.11090631046488
260.85256300308697
352.6959664666711
304.6801878775026
266.56886053010385
237.68006087718263
216.85236789623013
202.55738312870665
193.20615366422618
187.36665945246534
183.87925521527097
181.88334630075587
180.78629937533472
180.20591227074715
179.90973481420113
179.7636514758486
179.6939273816439
179.66184879404452
179.6481476069698
179.64434112972495
179.6488254591589
179.6668576595701
179.71484614047498
179.83092516931745
180.095082083071
180.66239328864307
181.8107766963344
183.9982701861752
187.91452085796115
194.50076001864707
204.9100726251946
220.40305236560135
241.65164314493202
312.83835132176154
267.9592180667294
232.88708266054928
206.7132628528785
188.07802678051502
175.41802142328348
167.20414076885567
162.10774568222644
159.07885650168743
157.35143452633363
156.40421180704286
155.90382062653237
155.64866339149674
155.5228599706397
155.46288020651895
155.43549711333586
155.42445490603072
155.42330119466382
155.43274964516635
155.46220148522661
155.53638744845745
155.7096504731453
156.0912477332588
156.88448651377428
158.43864570040157
161.30456579693993
166.27376376552465
174.37163054308587
186.77271712478313
204.56064093355045
228.70357995244925
281.85000558680423
240.1149527977401
207.7785738276497
183.8108391229972
166.82530280126124
155.3155632047298
147.8538488824593
143.2212862091833
140.46341500159343
138.88670828971703
138.01957748204546
137.5600257924933
137.32492014783526
137.20865508344355
137.15315711935463
137.12806627860627
137.11882779110917
137.12054206563647
137.1363958149027
137.18065965594607
137.28770697639337
137.52975241409712
138.0464313358908
139.0877143457233
141.06642294540737
144.60763778991767
150.5718497645079
160.021867086264
174.10549724987183
193.91565268065423
220.29726990704938
258.9176589023681
219.98772153413915
189.89910796768058
167.60875189798344
151.7929101126085
141.04841870597207
134.0584279768294
129.7010496135033
127.09577362411375
125.59981348060448
124.77362505842127
124.33404433363413
124.1083531721093
123.99642993073492
123.94300034322653
123.91921781556778
123.91163149671699
123.91679037442061
123.9406079730241
124.0027826323615
124.14798010992261
124.46641687663679
125.12636986992595
126.41854742222456
128.80627838900543
132.96655874479495
139.79840120167023
150.37344646208774
165.82592728229298
187.18371267167336
215.16526024827235
242.74174379684845
206.11308510169286
177.74114180955456
156.64774090745553
141.61530060691135
131.35363090113043
124.64503673699949
120.44334100484485
117.92015770266322
116.46561174533419
115.65950112106331
115.2293057616524
115.0078820393166
114.89790377413253
114.84551023375195
114.82271077825628
114.8169225452086
114.82617414901533
114.85928627304745
114.94157060479402
115.12777021878154
115.52465144034667
116.32499032474232
117.85152213481605
120.60326814165924
125.28864521963402
132.82354430508772
144.27553545807157
160.74409985376528
183.18629234154366
212.226385374842
231.85759736928114
196.98630444763057
169.84273484002944
149.5545414704617
135.0189763497594
125.04695986107315
118.49845423732583
114.38099419546727
111.90014066707832
110.46599810812896
109.66935959643602
109.24342184703666
109.02388396934784
108.91479914654285
108.86303848348497
108.84117245106754
108.8374082143813
108.85127181281885
108.89449555432006
108.99773913366461
109.22478182715565
109.69625744588623
110.62393179845012
112.35314767340682
115.40517899058156
120.50423572976854
128.56932073921638
140.6523204418921
157.81494245773857
180.95886378750407
210.6484190921077
224.86528112583767
191.25170877239495
164.9358122005306
145.16016065513418
130.92399001788266
121.11763201199294
114.65623357300579
110.582465090586
108.12258553631638
106.69813069869122
105.90580598053153
105.48174488127252
105.26303715611662
105.15441287743232
105.10315234676855
105.08226011516439
105.0806943202584
105.0994252913407
105.1528868509676
105.27642159600568
105.54122625319408
106.07851291343991
107.11335025676374
109.00529570374547
112.28749517245384
117.68953597909123
126.12517032712846
138.62786176091348
156.22889077642301
179.79366413745424
209.85335538264007
220.5711031837758
187.80531910259822
162.01692369582122
142.55083578781483
128.48652404730123
118.77070116608044
112.35476067189254
108.30278190169217
105.85292380998389
104.4329102387702
103.64249266059952
103.219244061105
103.0009186551429
102.89258842043385
102.84179526501029
102.82191669668083
102.82260347887404
102.84613030840111
102.90924306565404
103.05104950667193
103.34831077828056
103.93956851777126
105.0582565846528
107.07173560742665
110.51803915092603
116.12618582082116
124.80196111629587
137.56339454189677
155.42143465933015
179.2208380849966
209.47693348180445
218.04634662837861
185.82087829991582
160.35164235687512
141.0636171642753
127.09354452208369
117.42515152566412
111.03199126112997
106.99047719661013
104.54525480553279
103.12721452586707
102.33762451339177
101.91473259035318
101.69661067536363
101.58851569626809
101.53818185704274
101.51931214863892
101.52216243123394
101.55009925400202
101.62169092305278
101.77882295762919
102.1020637480996
102.7345424030588
103.91433833897251
106.01234044458494
109.5675290410816
115.30601430803314
124.12639815039368
137.03611286314904
155.0343565480174
178.95568862209626
209.30909010673864
216.62267293204798
184.7242619831753
159.4387617801294
140.2485692150959
126.32797373796173
116.68348330478109
110.30133079392421
106.26468460258027
103.82154088896714
102.40436363319954
101.61513506328987
101.19241636489794
100.97443437014665
100.86655604089306
100.8166685436794
100.79874778179936
100.8035446187319
100.83527002430249
100.91381429233753
101.08293847557795
101.42557646368876
102.08741952232766
103.30875365917272
105.46155433897435
109.08404241438079
114.89928793299684
123.80078962703732
136.789769512223
154.85943989652623
178.8400430301423
209.2386048437773
215.85112583939824
184.14141326689824
158.9570005371736
139.8183057264737
125.92269356841807
116.28978724756648
109.91277013760805
105.87834422586445
103.43612138164147
102.01933905815986
101.23029298574676
100.80769065027353
100.58983691436138
100.48217291746553
100.43270701895798
100.41563102672535
100.42207192573683
100.45684350081216
100.54071755286571
100.71861080948601
101.07478028888887
101.75616289399055
103.00386029036578
105.18982940262194
108.85114258825232
114.70859146763512
123.65259592537916
136.68118540687206
154.78494210158314
178.79259984839558
209.211009948494
215.44869494968347
183.84288616843807
158.71177729289153
139.59909322297793
125.71568381754813
116.08822828240609
109.71357318807121
105.68016289771855
103.23839084793087
101.82183846859941
101.03294141053397
100.61047287223813
100.39277415091699
100.28533916190791
100.23626746521857
100.21991175670651
100.22766397496285
100.26473571384092
100.35243789264096
100.53633344492651
100.90133421619038
101.59488134774858
102.85822661374738
105.06296502211465
108.74522620156593
114.62438946228504
123.58928080955089
136.63645942145016
154.75553798722405
178.77488337103983
209.20172454892295
215.24613263912596
183.69523774099557
158.59117743171316
139.49122914774648
125.61359899901554
115.98868425215666
109.61520025686056
105.5823529366309
103.1409320861896
101.72464239044145
100.93597829674083
100.5137349614455
100.29627013594616
100.18911248489205
100.14042546678844
100.12467530152976
100.13342886290982
100.17214218780973
100.26242979924997
100.45018063439768
100.82058445926947
101.52122639630213
102.79327749105185
105.00797371012962
108.7008387944822
114.59049152333903
123.56502929853258
136.62044916759154
154.7461025338062
178.7704866620469
209.20121357052392
215.14765506499452
183.62471749759663
158.53390316388368
139.44013628263428
125.56531751639933
115.9417688204451
109.56907959579736
105.53681824754852
103.09592090973223
101.68012867976336
100.89194178579706
100.47013948519141
100.25308087576647
100.14631379263619
100.09804771105354
100.08282818183523
100.09233619345915
100.13217257288744
100.22411283461493
100.41419456685132
100.7877057036426
101.49223329089341
102.76883038913142
104.9884893425277
108.68640223734876
114.58084703693021
123.55961989801618
136.61857319913116
154.7470843269811
178.77401801007028
209.20766817875716
215.10148371165758
183.5924233530073
158.5081487077158
139.4175548014699
125.54445261315428
115.92215843254994
109.55055072324971
105.51939199005459
103.07959879723639
101.6648828174246
100.87769489747531
100.45677099268183
100.24045549849443
100.13430658356683
100.08657717397087
100.07187985804534
100.08198156553689
100.12257744700128
100.21553252914525
100.40695079178064
100.78214737470935
101.48868157200613
102.76751714901175
104.98951235602301
108.68970124497623
114.58623539548486
123.56684313412867
136.62742891464165
154.7576509801788
178.78691539486
209.2249125919372
215.0811710011657
183.57910240291727
158.49860226383316
139.4104010471925
125.53933415453008
115.91913656505939
109.54979059081553
105.5210255341767
103.08363566394189
101.67120291847458
100.88604358522943
100.4668187606686
100.25185037553183
100.14672493487795
100.09976289653736
100.0856653170037
100.09629292725697
100.13742659426626
100.23099878961845
100.42315551242928
100.79922159327181
101.50673606376269
102.78661566794658
105.00965852806111
108.71085312881972
114.60832862444084
123.589885668059
136.65164645767064
154.78387142691344
178.8171740061033
209.26379897137087
215.07435343597294
183.5768294188141
158.499840804042
139.41513208321678
125.54811593783914
115.93248775474143
109.56819024889508
105.5446327516612
103.11229618625855
101.70446032803989
100.92321598969404
100.50712340330136
100.29450988073306
100.19106201543383
100.14524593793638
100.13192162553248
100.14309365281868
100.18465711928441
100.27862376940358
100.47118628943936
100.84768805347268
101.55566428778165
102.83601814897933
105.05953448231024
108.76122055613878
114.65928588093266
123.64175744204675
136.7053169811145
154.84135991896346
178.88305643016878
209.34755392867905
215.07728351120383
183.58519363511806
158.51433779523717
139.43711062170064
125.57905137653773
115.97358109066263
109.6201086581521
105.60733663666457
103.18506237449094
101.78598693881881
101.01188369732013
100.60124609483313
100.39254387425736
100.29173754669554
100.24761203317722
100.23532730821287
100.24713155001781
100.2890964370757
100.3833489199249
100.5761479445464
100.95287084072311
101.66106819076694
102.94165582093244
105.16545433366451
108.86755572688352
114.76639751405352
123.7505220416117
136.81779779192692
154.9620441068929
179.02131356766313
209.52201198941083
215.09384276943
183.61216574288807
158.55469943127682
139.49425240678215
125.65579001040189
116.07188963978493
109.7405059099784
105.7488592900496
103.34544615510501
101.96209395672967
101.20025391422763
100.79856639584324
100.59599300251111
100.49912996130503
100.45739721503746
100.44649084634824
100.45905939990548
100.50144459334167
100.59593978782074
100.78889885718213
101.16575116396274
101.8740831455181
103.1548550402673
105.37898640700271
109.08179587329292
114.98224040280296
123.97002099415649
137.04537673593717
155.20700840318244
179.3021285523489
209.87366112410115
215.1380292435527
183.6794043983657
158.65169906719913
139.62736316333644
125.82980741859657
116.28910737468632
110.00020546333664
106.04750442441025
103.67735441593734
102.32052866783071
101.57846350635695
101.19057383164127
100.99702568445747
100.90570570974154
100.86717781040176
100.85802223199379
100.87150126175847
100.91434486833226
101.00907321192355
101.2021666648606
101.57912989181725
102.28761613493717
103.56869606121893
105.79351930129701
109.49792732204476
115.40200966023328
124.39787739393793
137.49056022813397
155.68790800463597
179.853608111267
210.55841569208022
215.242932931092
183.83443713772644
158.869832660662
139.91927664758637
126.20219643023455
116.7430033834774
110.53089176776696
106.6455283184791
104.33039574948221
103.01553157801703
102.3033662580706
101.93541907760824
101.75433427074539
101.67032646143349
101.63583466356249
101.62878112229195
101.64329914571888
101.68663742829682
101.78160572649122
101.97484531470613
102.3519710728439
103.06076602282276
104.34254784023526
106.56899767492843
110.27710504137355
116.18936799222412
125.20267067689879
138.33121498884302
156.5992942163551
180.8984956957724
211.84365090951803
215.47720681934288
184.1727200264156
159.33422877480976
140.5257624505195
126.95728420022905
117.64231035734329
111.56024486073929
107.78392167453214
105.55398526007123
104.30123988988491
103.63139264668985
103.29041745125758
103.12543979410901
103.05046287618762
103.02073556553279
103.01605488491468
103.03169607713556
103.0755528160242
103.17078382525014
103.3642345261006
103.74169717995376
104.45122886101582
105.73469963802262
107.96496545776266
111.68144267791554
117.61147496714491
126.66111448545836
139.8610654818756
158.26358163165838
182.8044838061523
214.16335674358479
215.9723754882126
184.871288248414
160.27007189640082
141.71834002103438
128.40700440157482
119.33077071156524
113.45449054778096
109.84316333959916
107.73652458265575
106.56972775155137
105.95584624421268
105.64895401517852
105.50342712318913
105.4388759925926
105.41441092422174
105.41224319963476
105.42903469814225
105.4734276300564
105.5689872391292
105.76283545557582
106.14109018420416
106.8524018971668
108.13985992498107
110.37881468877296
114.11361130258769
120.08085789815519
129.20324486377257
142.53952977308006
161.18635619002572
186.14455891549625
218.1805181047395
216.9634040531892
186.23578902143277
162.05322807539082
143.93525020901404
131.03937896977862
122.33179956421374
116.75926848756065
113.3809121876729
111.44078014512448
110.38493831876009
109.84008461987641
109.57335848480238
109.44974452949427
109.39643109299377
109.37740235934372
109.37773454359304
109.39565461927147
109.44062925022268
109.53670397243349
109.7314287786696
110.11158020289223
110.82709463913103
112.12365227315362
114.38166730865932
118.15496767810639
124.19700575199928
133.45875831737104
147.04351354681035
166.11298135218772
191.75502067203118
224.83976640898226
218.83752197417272
188.75269385516935
165.26061889420845
147.8262337843193
135.55540219269866
127.37758628453597
122.22271161793431
119.15099442995228
117.42036607859144
116.49789718057949
116.03230483083944
115.80965967011443
115.70905115621073
115.66703874100911
115.65326538110864
115.65595227134344
115.6749772067118
115.72069504224523
115.8177763757509
116.01453940419171
116.39914037103689
117.12423092675216
118.44075158340331
120.7388883349278
124.58969333447779
130.77533801439577
140.29161625232706
154.30686146498337
174.06931108576504
200.76997838366913
235.3842898556798
222.18257312444305
193.13234612049402
170.70169160842218
154.26855908810083
142.87065063131368
135.400747204869
130.78094300437135
128.08479587448824
126.59920772320326
125.82569347318449
125.44468222648507
125.26703166615894
125.18891592350882
125.1575144881659
125.14851514405026
125.15334904383022
125.1735600523882
125.22050045071562
125.31979732576879
125.52127842194326
125.91596540448258
126.66200196922226
128.02046371203792
130.39930913966592
134.39896757672233
140.8470782755628
150.8047014301999
165.52592151138046
186.36000954085006
214.60036795552645
251.302267877393
227.81402767274744
200.31801580857646
179.40288562919432
164.32627433895587
154.0581847394116
147.47062954912437
143.48828384472455
141.21895451631426
139.99909277543566
139.37985751210667
139.082629288296
138.94766859221463
138.8900337546347
138.86795393780952
138.86308875623615
138.86994676413417
138.8917527321155
138.94114361884826
139.04544643529505
139.25752887445785
139.67415348999933
140.46400349945662
141.90655845461652
144.44004531664226
148.71143127643526
155.6144766441295
166.29586390487623
182.10823163077498
204.4970926445804
234.82694850708145
274.1735025821022
236.75940709221933
211.4386171964166
192.51676835273776
179.12624561892642
170.23130459046894
164.66637694179204
161.3871025569008
159.56637375099638
158.61310754240836
158.141875255053
157.92163707425158
157.82432822098858
157.78409687876552
157.7697445835344
157.76843294815185
157.7775401739648
157.80213899434682
157.85685485688512
157.9722643506413
158.20723025439315
158.66945358682239
159.54666771141248
161.14961455011155
163.96440066380327
168.70565106977222
176.3538471462219
188.15355883987274
205.5486546763002
230.04130003567298
262.9908594982822
305.4040197176142
250.19556188234247
227.7064173310418
211.08290012574278
199.71536717614524
192.37159162557597
187.90004311555316
185.33553020417273
183.94983024535233
183.24373957950309
182.90396991740295
182.74938141870277
182.68298203724038
182.65662374213787
182.6484836771834
182.65054396006292
182.6629671960205
182.69326638895438
182.75958743668338
182.89875732715674
183.1809408844474
183.7334747738229
184.7762850000736
186.66937773920813
189.96837115413308
195.47666141677698
204.2741626370645
217.69623941467444
237.23804194772669
264.37276542135953
300.29279165401385
345.8455767009829
269.7028762171596
249.73750804777316
236.00343207254494
226.86943144976146
221.12972725378276
217.73049810314922
215.8342976217393
214.83752837702698
214.34320776978458
214.11160827679794
214.0090334949308
213.96635734935592
213.9505625678647
213.94764717034812
213.95384318898164
213.97244876388766
214.01486286689365
214.1057532421649
214.29356995295666
214.66859767196257
215.39113037588368
216.7315428524047
219.12106510140976
223.20635629756057
229.89281922367374
240.353538378793
255.9771521829181
278.23347573335997
308.4491360015918
347.485566602232
394.30116086130715
