# vtk DataFile Version 2.0
Unstructured Grid Example
ASCII
DATASET UNSTRUCTURED_GRID

POINTS 961 float
0.150000006 -0.00839745998 0
0.146666661 -0.00839745998 0
0.143333331 -0.00839745998 0
0.140000001 -0.00839745998 0
0.13666667 -0.00839745998 0
0.13333334 -0.00839745998 0
0.129999995 -0.00839745998 0
0.126666665 -0.00839745998 0
0.123333335 -0.00839745998 0
0.119999997 -0.00839745998 0
0.116666667 -0.00839745998 0
0.113333337 -0.00839745998 0
0.109999999 -0.00839745998 0
0.106666669 -0.00839745998 0
0.103333332 -0.00839745998 0
0.100000001 -0.00839745998 0
0.0966666639 -0.00839745998 0
0.0933333337 -0.00839745998 0
0.0900000036 -0.00839745998 0
0.086666666 -0.00839745998 0
0.0833333358 -0.00839745998 0
0.0799999982 -0.00839745998 0
0.0766666681 -0.00839745998 0
0.0733333305 -0.00839745998 0
0.0700000003 -0.00839745998 0
0.0666666701 -0.00839745998 0
0.0633333325 -0.00839745998 0
0.0599999987 -0.00839745998 0
0.0566666685 -0.00839745998 0
0.0533333346 -0.00839745998 0
0.0500000007 -0.00839745998 0
0.148333326 -0.0112842107 0
0.144999996 -0.0112842107 0
0.141666666 -0.0112842107 0
0.138333336 -0.0112842107 0
0.135000005 -0.0112842107 0
0.13166666 -0.0112842107 0
0.12833333 -0.0112842107 0
0.125 -0.0112842107 0
0.12166667 -0.0112842107 0
0.118333332 -0.0112842107 0
0.115000002 -0.0112842107 0
0.111666664 -0.0112842107 0
0.108333334 -0.0112842107 0
0.104999997 -0.0112842107 0
0.101666667 -0.0112842107 0
0.0983333364 -0.0112842107 0
0.0949999988 -0.0112842107 0
0.0916666687 -0.0112842107 0
0.088333331 -0.0112842107 0
0.0850000009 -0.0112842107 0
0.0816666633 -0.0112842107 0
0.0783333331 -0.0112842107 0
0.075000003 -0.0112842107 0
0.0716666654 -0.0112842107 0
0.0683333352 -0.0112842107 0
0.0649999976 -0.0112842107 0
0.0616666675 -0.0112842107 0
0.0583333336 -0.0112842107 0
0.0549999997 -0.0112842107 0
0.0516666658 -0.0112842107 0
0.0483333319 -0.0112842107 0
0.146666661 -0.0141709624 0
0.143333331 -0.0141709624 0
0.140000001 -0.0141709624 0
0.13666667 -0.0141709624 0
0.13333334 -0.0141709624 0
0.129999995 -0.0141709624 0
0.126666665 -0.0141709624 0
0.123333335 -0.0141709624 0
0.119999997 -0.0141709624 0
0.116666667 -0.0141709624 0
0.113333337 -0.0141709624 0
0.109999999 -0.0141709624 0
0.106666669 -0.0141709624 0
0.103333332 -0.0141709624 0
0.100000001 -0.0141709624 0
0.0966666639 -0.0141709624 0
0.0933333337 -0.0141709624 0
0.0900000036 -0.0141709624 0
0.086666666 -0.0141709624 0
0.0833333358 -0.0141709624 0
0.0799999982 -0.0141709624 0
0.0766666681 -0.0141709624 0
0.0733333305 -0.0141709624 0
0.0700000003 -0.0141709624 0
0.0666666701 -0.0141709624 0
0.0633333325 -0.0141709624 0
0.0599999987 -0.0141709624 0
0.0566666685 -0.0141709624 0
0.0533333346 -0.0141709624 0
0.0500000007 -0.0141709624 0
0.0466666669 -0.0141709624 0
0.144999996 -0.0170577131 0
0.141666666 -0.0170577131 0
0.138333336 -0.0170577131 0
0.135000005 -0.0170577131 0
0.13166666 -0.0170577131 0
0.12833333 -0.0170577131 0
0.125 -0.0170577131 0
0.12166667 -0.0170577131 0
0.118333332 -0.0170577131 0
0.115000002 -0.0170577131 0
0.111666664 -0.0170577131 0
0.108333334 -0.0170577131 0
0.104999997 -0.0170577131 0
0.101666667 -0.0170577131 0
0.0983333364 -0.0170577131 0
0.0949999988 -0.0170577131 0
0.0916666687 -0.0170577131 0
0.088333331 -0.0170577131 0
0.0850000009 -0.0170577131 0
0.0816666633 -0.0170577131 0
0.0783333331 -0.0170577131 0
0.075000003 -0.0170577131 0
0.0716666654 -0.0170577131 0
0.0683333352 -0.0170577131 0
0.0649999976 -0.0170577131 0
0.0616666675 -0.0170577131 0
0.0583333336 -0.0170577131 0
0.0549999997 -0.0170577131 0
0.0516666658 -0.0170577131 0
0.0483333319 -0.0170577131 0
0.0450000018 -0.0170577131 0
0.143333331 -0.0199444648 0
0.140000001 -0.0199444648 0
0.13666667 -0.0199444648 0
0.13333334 -0.0199444648 0
0.129999995 -0.0199444648 0
0.126666665 -0.0199444648 0
0.123333335 -0.0199444648 0
0.119999997 -0.0199444648 0
0.116666667 -0.0199444648 0
0.113333337 -0.0199444648 0
0.109999999 -0.0199444648 0
0.106666669 -0.0199444648 0
0.103333332 -0.0199444648 0
0.100000001 -0.0199444648 0
0.0966666639 -0.0199444648 0
0.0933333337 -0.0199444648 0
0.0900000036 -0.0199444648 0
0.086666666 -0.0199444648 0
0.0833333358 -0.0199444648 0
0.0799999982 -0.0199444648 0
0.0766666681 -0.0199444648 0
0.0733333305 -0.0199444648 0
0.0700000003 -0.0199444648 0
0.0666666701 -0.0199444648 0
0.0633333325 -0.0199444648 0
0.0599999987 -0.0199444648 0
0.0566666685 -0.0199444648 0
0.0533333346 -0.0199444648 0
0.0500000007 -0.0199444648 0
0.0466666669 -0.0199444648 0
0.043333333 -0.0199444648 0
0.141666666 -0.0228312165 0
0.138333336 -0.0228312165 0
0.135000005 -0.0228312165 0
0.13166666 -0.0228312165 0
0.12833333 -0.0228312165 0
0.125 -0.0228312165 0
0.12166667 -0.0228312165 0
0.118333332 -0.0228312165 0
0.115000002 -0.0228312165 0
0.111666664 -0.0228312165 0
0.108333334 -0.0228312165 0
0.104999997 -0.0228312165 0
0.101666667 -0.0228312165 0
0.0983333364 -0.0228312165 0
0.0949999988 -0.0228312165 0
0.0916666687 -0.0228312165 0
0.088333331 -0.0228312165 0
0.0850000009 -0.0228312165 0
0.0816666633 -0.0228312165 0
0.0783333331 -0.0228312165 0
0.075000003 -0.0228312165 0
0.0716666654 -0.0228312165 0
0.0683333352 -0.0228312165 0
0.0649999976 -0.0228312165 0
0.0616666675 -0.0228312165 0
0.0583333336 -0.0228312165 0
0.0549999997 -0.0228312165 0
0.0516666658 -0.0228312165 0
0.0483333319 -0.0228312165 0
0.0450000018 -0.0228312165 0
0.0416666679 -0.0228312165 0
0.140000001 -0.0257179681 0
0.13666667 -0.0257179681 0
0.13333334 -0.0257179681 0
0.129999995 -0.0257179681 0
0.126666665 -0.0257179681 0
0.123333335 -0.0257179681 0
0.119999997 -0.0257179681 0
0.116666667 -0.0257179681 0
0.113333337 -0.0257179681 0
0.109999999 -0.0257179681 0
0.106666669 -0.0257179681 0
0.103333332 -0.0257179681 0
0.100000001 -0.0257179681 0
0.0966666639 -0.0257179681 0
0.0933333337 -0.0257179681 0
0.0900000036 -0.0257179681 0
0.086666666 -0.0257179681 0
0.0833333358 -0.0257179681 0
0.0799999982 -0.0257179681 0
0.0766666681 -0.0257179681 0
0.0733333305 -0.0257179681 0
0.0700000003 -0.0257179681 0
0.0666666701 -0.0257179681 0
0.0633333325 -0.0257179681 0
0.0599999987 -0.0257179681 0
0.0566666685 -0.0257179681 0
0.0533333346 -0.0257179681 0
0.0500000007 -0.0257179681 0
0.0466666669 -0.0257179681 0
0.043333333 -0.0257179681 0
0.0399999991 -0.0257179681 0
0.138333336 -0.0286047198 0
0.135000005 -0.0286047198 0
0.13166666 -0.0286047198 0
0.12833333 -0.0286047198 0
0.125 -0.0286047198 0
0.12166667 -0.0286047198 0
0.118333332 -0.0286047198 0
0.115000002 -0.0286047198 0
0.111666664 -0.0286047198 0
0.108333334 -0.0286047198 0
0.104999997 -0.0286047198 0
0.101666667 -0.0286047198 0
0.0983333364 -0.0286047198 0
0.0949999988 -0.0286047198 0
0.0916666687 -0.0286047198 0
0.088333331 -0.0286047198 0
0.0850000009 -0.0286047198 0
0.0816666633 -0.0286047198 0
0.0783333331 -0.0286047198 0
0.075000003 -0.0286047198 0
0.0716666654 -0.0286047198 0
0.0683333352 -0.0286047198 0
0.0649999976 -0.0286047198 0
0.0616666675 -0.0286047198 0
0.0583333336 -0.0286047198 0
0.0549999997 -0.0286047198 0
0.0516666658 -0.0286047198 0
0.0483333319 -0.0286047198 0
0.0450000018 -0.0286047198 0
0.0416666679 -0.0286047198 0
0.038333334 -0.0286047198 0
0.13666667 -0.0314914696 0
0.13333334 -0.0314914696 0
0.129999995 -0.0314914696 0
0.126666665 -0.0314914696 0
0.123333335 -0.0314914696 0
0.119999997 -0.0314914696 0
0.116666667 -0.0314914696 0
0.113333337 -0.0314914696 0
0.109999999 -0.0314914696 0
0.106666669 -0.0314914696 0
0.103333332 -0.0314914696 0
0.100000001 -0.0314914696 0
0.0966666639 -0.0314914696 0
0.0933333337 -0.0314914696 0
0.0900000036 -0.0314914696 0
0.086666666 -0.0314914696 0
0.0833333358 -0.0314914696 0
0.0799999982 -0.0314914696 0
0.0766666681 -0.0314914696 0
0.0733333305 -0.0314914696 0
0.0700000003 -0.0314914696 0
0.0666666701 -0.0314914696 0
0.0633333325 -0.0314914696 0
0.0599999987 -0.0314914696 0
0.0566666685 -0.0314914696 0
0.0533333346 -0.0314914696 0
0.0500000007 -0.0314914696 0
0.0466666669 -0.0314914696 0
0.043333333 -0.0314914696 0
0.0399999991 -0.0314914696 0
0.0366666652 -0.0314914696 0
0.135000005 -0.0343782231 0
0.13166666 -0.0343782231 0
0.12833333 -0.0343782231 0
0.125 -0.0343782231 0
0.12166667 -0.0343782231 0
0.118333332 -0.0343782231 0
0.115000002 -0.0343782231 0
0.111666664 -0.0343782231 0
0.108333334 -0.0343782231 0
0.104999997 -0.0343782231 0
0.101666667 -0.0343782231 0
0.0983333364 -0.0343782231 0
0.0949999988 -0.0343782231 0
0.0916666687 -0.0343782231 0
0.088333331 -0.0343782231 0
0.0850000009 -0.0343782231 0
0.0816666633 -0.0343782231 0
0.0783333331 -0.0343782231 0
0.075000003 -0.0343782231 0
0.0716666654 -0.0343782231 0
0.0683333352 -0.0343782231 0
0.0649999976 -0.0343782231 0
0.0616666675 -0.0343782231 0
0.0583333336 -0.0343782231 0
0.0549999997 -0.0343782231 0
0.0516666658 -0.0343782231 0
0.0483333319 -0.0343782231 0
0.0450000018 -0.0343782231 0
0.0416666679 -0.0343782231 0
0.038333334 -0.0343782231 0
0.0350000001 -0.0343782231 0
0.13333334 -0.0372649729 0
0.129999995 -0.0372649729 0
0.126666665 -0.0372649729 0
0.123333335 -0.0372649729 0
0.119999997 -0.0372649729 0
0.116666667 -0.0372649729 0
0.113333337 -0.0372649729 0
0.109999999 -0.0372649729 0
0.106666669 -0.0372649729 0
0.103333332 -0.0372649729 0
0.100000001 -0.0372649729 0
0.0966666639 -0.0372649729 0
0.0933333337 -0.0372649729 0
0.0900000036 -0.0372649729 0
0.086666666 -0.0372649729 0
0.0833333358 -0.0372649729 0
0.0799999982 -0.0372649729 0
0.0766666681 -0.0372649729 0
0.0733333305 -0.0372649729 0
0.0700000003 -0.0372649729 0
0.0666666701 -0.0372649729 0
0.0633333325 -0.0372649729 0
0.0599999987 -0.0372649729 0
0.0566666685 -0.0372649729 0
0.0533333346 -0.0372649729 0
0.0500000007 -0.0372649729 0
0.0466666669 -0.0372649729 0
0.043333333 -0.0372649729 0
0.0399999991 -0.0372649729 0
0.0366666652 -0.0372649729 0
0.0333333351 -0.0372649729 0
0.13166666 -0.0401517227 0
0.12833333 -0.0401517227 0
0.125 -0.0401517227 0
0.12166667 -0.0401517227 0
0.118333332 -0.0401517227 0
0.115000002 -0.0401517227 0
0.111666664 -0.0401517227 0
[...]
POINT_DATA 961
SCALARS Temp float 1
LOOKUP_TABLE default
389.98742363464504
340.8933353414334
300.68396396359344
269.9906320014687
247.78924547918947
232.55148680179263
222.61594289841935
216.4520361882699
212.80653128917635
210.74655139427236
209.63168802270025
209.05235660874993
208.76257203143658
208.62270618746268
208.55743654499864
208.52799525948672
208.51537360267227
208.51095783283688
208.5120064792518
208.52052146638172
208.5454660080007
208.60970297832995
208.7646744120904
209.11710152397683
209.87150233728784
211.38820781911699
214.24687134298475
219.29228551678875
227.63082458272973
240.55865238308033
259.69890967190054
340.8933761026642
293.8565359346719
257.06099912868996
229.64856165213797
210.26253466424117
197.23925329820034
188.91902786773178
183.85563880134032
180.91457365436239
179.280357797007
178.40958852525497
177.96355601106112
177.74338647911352
177.63841680047506
177.59001144019393
177.56851694708865
177.55974086454356
177.557764689463
177.56193286677322
177.5771952685862
177.61838375822038
177.72060232842577
177.95946877615046
178.4855831469895
179.5756506129341
181.69590796575253
185.56144651806844
192.161982489922
202.72001046569235
218.57005384497552
240.5586721234895
300.68392341091084
257.060981091686
223.47345735091758
198.84202113880485
181.6521687457696
170.23370048653834
163.0075035588071
158.6440854368459
156.12547398537632
154.73288666239716
153.99364269185244
153.61602067411783
153.42998093756694
153.34140978493002
153.30065031719897
153.28272466022332
153.27591359249863
153.27592259573552
153.283976835105
153.30854086987836
153.3718146044461
153.5237983635372
153.86798824949653
154.6024936323209
156.07663397110363
158.85408586372483
163.76042999506026
171.8810161763968
184.47218536698935
202.72000108434193
227.63083407233898
269.9905807650288
229.6485359481017
198.84202340162406
176.3966709897627
160.80300349483306
150.47232344496967
143.94151012851998
139.99717264542628
137.71771778072232
136.4549150563945
135.78291385285988
135.43868713164196
135.26860341496845
135.18740835932206
135.150011359454
135.13375445518886
135.1282515616176
135.13043069701789
135.14354455936063
135.1802452897984
135.2713541913396
135.4834588983619
135.94925473902768
136.91323097853012
138.78993431023133
142.22171674368812
148.11002515757448
157.58503567445493
171.88103085367146
192.16199539538889
219.29227715281831
247.78920119898052
210.26251300004395
181.65215804648088
160.80306041596512
146.2944018028774
136.65607690423326
130.54169300277812
126.8344096200665
124.68320807724945
123.4865998322102
122.8473207292254
122.51864509144062
122.35569878211022
122.2777036366968
122.24178729939764
122.22645268558335
122.2221555459465
122.22697048004214
122.24641816235392
122.29786385185855
122.42140907459934
122.70047010014666
123.2954384166811
124.49149657281211
126.75522468852061
130.7841323158199
137.52211865559235
148.11001887318284
163.7604257618035
185.56144450705722
214.24687746913588
232.5514441961586
197.23928409321684
170.23374113567445
150.47229497688178
136.6560660925137
127.433150572292
121.5545983786218
117.97447714744011
115.8886523294374
114.72420846679533
114.10013572700514
113.77839121307332
113.61851496570944
113.54188189337908
113.50667682889704
113.49203243185836
113.48906519898308
113.4970359467555
113.52391169323636
113.59196434527719
113.7504339089683
114.09826424435995
114.81958324469579
116.23155083818364
118.83737859180012
123.36762832808861
130.78412988018607
142.2217179669243
158.8540928136739
181.69588755541656
211.38820095284322
222.6159496601186
188.9190479107165
163.0075452243888
143.9414768026054
130.54168066441827
121.55459553721208
115.8028003617438
112.28761157362739
110.23358238038129
109.0840845779296
108.46678177688933
108.14800699886841
107.98941389375443
107.91337615553397
107.8785972106442
107.86461726519808
107.86316143079723
107.87470639819486
107.90968453052865
107.99506268424146
108.18829104458155
108.60131659374046
109.43660444817974
111.03372008886946
113.91840554714344
118.8373755728533
126.75521809845785
138.78992453042935
156.07663177183534
179.5756482749856
209.87151124716488
216.45205040378542
183.85566367821286
158.6440332680214
139.9971440912282
126.83440794146082
117.97448545245246
112.28760971306795
108.80408516597136
106.76485935569951
105.62202993751652
105.00762594346986
104.69008304047726
104.53202362511186
104.4562823768353
104.4218435512287
104.40856593440833
104.40876066890804
104.42408713605523
104.46727079696265
104.56939282311531
104.79462616270335
105.26478280670077
106.19505121901628
107.93887116657308
111.0337185930134
116.2315487960467
124.4914978189184
136.91323199217928
154.60247987237133
178.48556424040996
209.11709171682782
212.80653792009426
180.9146058975738
156.12542947524875
137.71770040092014
124.68320957294382
115.88864484784831
110.23358092490463
106.7648642417146
104.73226606930898
103.59230058095353
102.97909770056201
102.66205574342567
102.50423046096365
102.42867802149499
102.39456266760061
102.38202138684777
102.38391144877886
102.40296268426663
102.45386246673766
102.57098796102169
102.82351941020221
103.34002946004634
104.34357856462256
106.1950525882085
109.43660461469904
114.81958244216517
123.29543715803506
135.9492507523517
153.867991888612
177.95947527009417
208.76469308115466
210.7465857104039
179.28029414988805
154.73286481512986
136.4549121882059
123.48661147960175
114.72420766399827
109.08408883195433
105.62202904474414
103.59229982541818
102.45352355470558
101.8408085522306
101.52397382222233
101.36627048275551
101.29087217616546
101.2570782778693
101.24527161550162
101.24878896925973
101.27125448122713
101.32889538109667
101.4585002610909
101.7326345071961
102.28403203954105
103.34002853905595
105.26478249566253
108.60131645369462
114.0982638737663
122.70047009134905
135.48344305402324
153.52378419365627
177.7205857638161
208.6096942584052
209.63174584578385
178.40953922443163
153.9936314291439
135.78291904722653
122.84731229047999
114.1001370592729
108.46678771448336
105.00762609918856
102.97909882518479
101.84080848113756
101.22829316291022
100.91155518526679
100.75393693388902
100.67868296131518
100.6452023776939
100.63408582339143
100.63906159792688
100.66444207274849
100.7275615674405
100.86681590960474
101.15683815514613
101.73263534786095
102.8235197047403
104.79462529800435
108.18828961248256
113.7504327307741
122.42140631205122
135.2713525774577
153.37181953393278
177.61839223640206
208.54545270836954
209.05229748619908
177.96352433500894
153.61601920894861
135.43869917090788
122.51863796077153
113.77839451919087
108.1480037934966
104.69008366691185
102.66205374165774
101.52397383260455
100.91155576273864
100.59488368064122
100.43734542301323
100.36223489163734
100.32904920709389
100.31854371751491
100.32474229903231
100.35244417985214
100.41971188804483
100.56591450103747
100.86681651668162
101.45850073010091
102.57098756928448
104.56939457023765
107.99506544999414
113.59196971341355
122.29785964764048
135.18023992633766
153.30854195012498
177.57719689948397
208.520535397901
208.76254518596315
177.74338210824007
153.42999842472062
135.2685919923193
122.35570082242641
113.618525197286
107.98941322538589
104.53202648039043
102.50422946533196
101.36627108571246
100.75393660181159
100.43734523758751
100.27990569252168
100.20494788122126
100.17203550501904
100.1620458279242
100.16920889013862
100.19864069057219
100.26884108036322
100.41971145824708
100.72756142154151
101.32889604506663
102.45386097305521
104.46727020387918
107.90968342171037
113.52390981698288
122.24641666889111
135.14354308596901
153.28398317205463
177.56191036755325
208.51201008546366
208.62268473657937
177.63841623711778
153.3414323782
135.18739775373223
122.27770702291232
113.54187595396685
107.91337648311479
104.45628026289059
102.4286773966634
101.29087311269457
100.67868254087185
100.36223486333142
100.20494783832143
100.13017495771288
100.09752630069916
100.08796397770547
100.09585209199672
100.12649747749161
100.1986406286069
100.35244429196445
100.6644420038048
101.27125489245915
102.40296254888946
104.42408875311075
107.8747094013622
113.49703328141719
122.22696683853307
135.13042619117635
153.2759236688647
177.55776843786052
208.51095719224315
208.5574360435302
177.5900305697367
153.30063752609797
135.1500119768698
122.24180075860696
113.50667536400356
107.8786019270251
104.42184303133321
102.39456262703565
101.25707807925197
100.6452023605739
100.3290493385794
100.17203546213389
100.09752634263354
100.06516464375787
100.0559706841404
100.06439415350475
100.09585205562837
100.16920878801923
100.32474214636082
100.6390616204418
101.24878867826085
102.38391005409346
104.40876009860922
107.86316018906642
113.48906438213201
122.22215483410773
135.1282512325029
153.27589853008413
177.559737129803
208.5153655027701
208.52799578782202
177.5685387632976
153.282712464564
135.1337572057371
122.22644279337337
113.49203215899225
107.8646132159484
104.40856611020003
102.38202209349386
101.24527139092623
100.63408588856497
100.31854339345246
100.16204583843569
100.08796391339627
100.05597068481542
100.047135267577
100.05597070112272
100.08796393799524
100.16204594582528
100.31854353753604
100.63408571132813
101.24527208343676
102.38202136239408
104.40856778456147
107.8646155399096
113.49203010396002
122.22645045679026
135.13375037673933
153.2827291265523
177.5685075056062
208.52799756484268
208.5153947587236
177.55971763820745
153.27591982364342
135.12826885109385
122.22215245804644
113.48907182588232
107.86316036624541
104.4087621953384
102.38391004646773
101.2487894420175
100.63906212221443
100.32474213590547
100.16920903336997
100.09585207397345
100.06439416956266
100.05597071370477
100.06516467031932
100.09752626410965
100.1720355023241
100.32904910945639
100.64520197561974
101.25707806832126
102.39456137546118
104.42184279008406
107.87859694924015
113.50667654241293
122.24178769097394
135.14999497042584
153.30064756658282
177.58999531045305
208.55742839095373
208.51098926219672
177.5577470999052
153.27593270921142
135.13041437254816
122.22696945294969
113.49702914235738
107.87470639474837
104.42408988587435
102.40296124797666
101.27125520426048
100.66444171621173
100.35244407792804
100.19864057500308
100.12649744026913
100.09585212089961
100.08796398710463
100.09752631053925
100.13017500802941
100.20494790416333
100.36223476081533
100.67868288292232
101.29087264859854
102.42867825177046
104.45628142525567
107.91337482557762
113.54188020601248
122.27770079767299
135.18740692024795
153.34140173667714
177.63840815768228
208.6227073086316
208.51197377745507
177.56192277381302
153.28399328849207
135.14352918747468
122.24642045002771
113.52390526279221
107.90968394062135
104.46726840151571
102.4538613568982
101.32889642892388
100.72756109463946
100.4197117785854
100.26884101679057
100.1986406506032
100.1692088843955
100.16204582372433
100.17203547737117
100.20494792524737
100.27990562734594
100.43734516099315
100.75393682771231
101.36627084949448
102.50423014734912
104.53202488731701
107.98941630926733
113.61852004447223
122.35569413183387
135.2686058593601
153.4299805460006
177.7433865160086
208.762582197427
208.52051419680487
177.57720769038517
153.30852405672425
135.18024277415353
122.29785277823366
113.5919647347091
107.99506721783753
104.56939232806306
102.57098813929541
101.45850021218229
100.86681612354359
100.5659143954406
100.41971180626453
100.35244425199413
100.32474231895658
100.31854372073678
100.32904922774415
100.3622349168753
100.43734536304645
100.59488383981835
100.9115554808398
101.52397424105264
102.6620542493589
104.69008242068463
108.1480059531046
113.77838961837253
122.51864338179736
135.43867562511582
153.61601326841873
177.96354702673153
209.0523572646845
208.545461774273
177.61840152504172
153.37179869039844
135.27135706185314
122.42139915027629
113.75043353262261
108.18828662238033
104.79462600869917
102.82352042477608
101.73263476752408
101.15683878174264
100.86681582029343
100.72756149770612
100.66444205191254
100.63906156400981
100.63408582552618
100.64520242186065
100.67868291818789
100.75393690605429
100.91155528881579
101.22829300209806
101.84080879589781
102.97909778556587
105.00762778724255
108.46678420328885
114.10013261438709
122.84732233356132
135.78290854173642
153.99364223573744
178.40958866822658
209.63168483646405
208.60969970316341
177.72055854895217
153.52378720655844
135.48343290809808
122.70046269735444
114.09826672010269
108.60131293379642
105.2647835461702
103.34002769973495
102.28403138036381
101.7326343183497
101.45850009154991
101.32889553234313
101.27125455868857
101.24878897959982
101.24527162227953
101.25707827944832
101.29087214094346
101.36627055830604
101.52397367124165
101.84080877761008
102.45352377798598
103.59229909316142
105.62203035741501
109.08408598347026
114.72421223492127
123.4865974061902
136.45491367827054
154.7328948035275
179.28036893991958
210.7465682027122
208.76472066589395
177.95946609285105
153.86801226673361
135.94925147914427
123.29544649157152
114.8195836112647
109.43661010466896
106.1950571087854
104.34358023747615
103.34003289953584
102.82352144971722
102.57098988613447
102.45386440449496
102.40296454515283
102.38391343775925
102.38202342899302
102.39456456108348
102.42867997890828
102.5042324136999
102.66205746232343
102.97909955904731
103.59230146398538
104.7322681339503
106.76486263265713
110.2335781333716
115.88865066303245
124.68320103110068
137.71770719093706
156.1254667769098
180.91454541372087
212.8065135047739
209.11708466016555
178.48558905534028
154.60248168074622
136.91323352826464
124.49151105170014
116.23155048448365
111.03372580457051
107.93887444585025
106.19505420450793
105.26478619696205
104.79462938032849
104.56939659260134
104.46727448310793
104.42409061808713
104.40876409992728
104.40856933219547
104.42184694793988
104.45628582004399
104.53202693297209
104.69008654131581
105.00762920328049
105.6220325517397
106.76486282397899
108.80408567016629
112.28761429510051
117.97447688700308
126.83440892190025
139.99716420086557
158.64408301415287
183.85563213056827
216.45203439936805
209.87149556096665
179.57566727972593
156.07662725453042
138.78993374606353
126.75521707555761
118.83738206396356
113.9184113825664
111.03372189925399
109.43660939420813
108.6013195503713
108.18829379715132
107.99506543759313
107.90968710252506
107.87470930079742
107.86316446718918
107.86462001179652
107.87860017127925
107.91337905175577
107.98941663487244
108.14800991225367
108.46678428570209
109.0840878941213
110.2335838390524
112.28761314841259
115.80280801829225
121.55459481714846
130.54169163304252
143.94151036617092
163.00749987778917
188.9190254217196
222.6159515622011
211.38820880808305
181.69587213989854
158.8540810333955
142.22172499782357
130.78412361396389
123.367631469374
118.83737712962962
116.23154956981246
114.81958284723332
114.0982636949992
113.75043445652594
113.59196494799791
113.52391188765115
113.49703601589864
113.48906518861341
113.49203250936233
113.50667694536779
113.54188199256124
113.61851534954947
113.77839131019326
114.10013579048854
114.72420932577313
115.88865187763643
117.97447990168777
121.55459371666565
127.43315340266324
136.65608336985457
150.47233387463578
170.23371371251852
197.23926206279577
232.55144636518781
214.24687559652864
185.56141896194774
163.76042080738742
148.1100026781033
137.52211418583312
130.7841281107081
126.75521544014788
124.49149226997665
123.29543165982355
122.70046305337101
122.42140199681238
122.29785640052576
122.24641135943627
122.2269639443212
122.22214849909125
122.22644606929113
122.24178052652299
122.27769670170949
122.35569205255376
122.51863828881261
122.84731444706772
123.48659260167821
124.68320177204087
126.83440731192275
130.54168553306675
136.65607785908355
146.29441841983527
160.8030137350014
181.65212397829777
210.26249115962466
247.7892009471114
219.29228881087968
192.16200887203317
171.88106514176542
157.5850515247883
148.11005124871082
142.2217358248572
138.78995301494382
136.91325035027725
135.94927362322807
135.48347938347462
135.2713748536995
135.18026525307647
135.14356426455333
135.13045023843523
135.12827133688234
135.13377422757364
135.1500311608824
135.18742851158868
135.26862300363837
135.4387068521479
135.78293392808456
136.4549339610729
137.71773796774178
139.99718701603143
143.9415277812374
150.47234824270203
160.80303896941862
176.39664558655585
198.84199020531736
229.64850758274093
269.99058469493434
227.6308443833099
202.72003365281776
184.47220116199028
171.88104342252305
163.76045595447522
158.8541045217528
156.0766582362314
154.60251474527624
153.86800883979643
153.5238187808955
153.37183430465538
153.3085614923992
153.28399786222914
153.27594293958734
153.27593458041483
153.28274537167317
153.3006707986705
153.34143040222474
153.43000157197795
153.61604141602302
153.99366246919584
154.7329071921141
156.12549606239793
158.64410217873737
163.00752396704092
170.2337279675848
181.65213951562072
198.8419921830283
223.47342377424036
257.06094975414885
300.68392062330344
240.5586745599901
218.57007737845072
202.72001342042768
192.16199714524896
185.5614536491482
181.6959149349398
179.5756584672241
178.48559055583993
177.95947846786956
177.72061218224624
177.6183925793475
177.57720380089245
177.56194119362485
177.55777350037565
177.55974957519913
177.5685257246537
177.59002062256437
177.63842522312387
177.74339529915113
177.9635650812509
178.40959677512564
179.28036681614293
180.91457866574427
183.85564623947016
188.91903986626377
197.23927229020734
210.26249992353235
229.64851437673696
257.0609434779645
293.85648135440596
340.89327058356895
259.6989260862574
240.55864706444336
227.63083101406173
219.29229094105716
214.24686856938123
211.38821138638534
209.87150226300824
209.11710212436677
208.76467477055874
208.60970141703046
208.5454659040569
208.5205216303964
208.51200644719125
208.51095826356294
208.51537370540242
208.52799536782962
208.55743608130012
208.62270651254113
208.76257209667173
209.05235586749055
209.63168811909486
210.74655285273488
212.80652898880854
216.4520359850401
222.61594612030515
232.55144125490577
247.78920024731917
269.99057594422
300.6838973172624
340.8932526587008
389.9870122773721
