# vtk DataFile Version 2.0
Unstructured Grid Example
ASCII
DATASET UNSTRUCTURED_GRID

POINTS 961 float
0.150000006 -0.00839745998 0
0.146666661 -0.00839745998 0
0.143333331 -0.00839745998 0
0.140000001 -0.00839745998 0
0.13666667 -0.00839745998 0
0.13333334 -0.00839745998 0
0.129999995 -0.00839745998 0
0.126666665 -0.00839745998 0
0.123333335 -0.00839745998 0
0.119999997 -0.00839745998 0
0.116666667 -0.00839745998 0
0.113333337 -0.00839745998 0
0.109999999 -0.00839745998 0
0.106666669 -0.00839745998 0
0.103333332 -0.00839745998 0
0.100000001 -0.00839745998 0
0.0966666639 -0.00839745998 0
0.0933333337 -0.00839745998 0
0.0900000036 -0.00839745998 0
0.086666666 -0.00839745998 0
0.0833333358 -0.00839745998 0
0.0799999982 -0.00839745998 0
0.0766666681 -0.00839745998 0
0.0733333305 -0.00839745998 0
0.0700000003 -0.00839745998 0
0.0666666701 -0.00839745998 0
0.0633333325 -0.00839745998 0
0.0599999987 -0.00839745998 0
0.0566666685 -0.00839745998 0
0.0533333346 -0.00839745998 0
0.0500000007 -0.00839745998 0
0.148333326 -0.0112842107 0
0.144999996 -0.0112842107 0
0.141666666 -0.0112842107 0
0.138333336 -0.0112842107 0
0.135000005 -0.0112842107 0
0.13166666 -0.0112842107 0
0.12833333 -0.0112842107 0
0.125 -0.0112842107 0
0.12166667 -0.0112842107 0
0.118333332 -0.0112842107 0
0.115000002 -0.0112842107 0
0.111666664 -0.0112842107 0
0.108333334 -0.0112842107 0
0.104999997 -0.0112842107 0
0.101666667 -0.0112842107 0
0.0983333364 -0.0112842107 0
0.0949999988 -0.0112842107 0
0.0916666687 -0.0112842107 0
0.088333331 -0.0112842107 0
0.0850000009 -0.0112842107 0
0.0816666633 -0.0112842107 0
0.0783333331 -0.0112842107 0
0.075000003 -0.0112842107 0
0.0716666654 -0.0112842107 0
0.0683333352 -0.0112842107 0
0.0649999976 -0.0112842107 0
0.0616666675 -0.0112842107 0
0.0583333336 -0.0112842107 0
0.0549999997 -0.0112842107 0
0.0516666658 -0.0112842107 0
0.0483333319 -0.0112842107 0
0.146666661 -0.0141709624 0
0.143333331 -0.0141709624 0
0.140000001 -0.0141709624 0
0.13666667 -0.0141709624 0
0.13333334 -0.0141709624 0
0.129999995 -0.0141709624 0
0.126666665 -0.0141709624 0
0.123333335 -0.0141709624 0
0.119999997 -0.0141709624 0
0.116666667 -0.0141709624 0
0.113333337 -0.0141709624 0
0.109999999 -0.0141709624 0
0.106666669 -0.0141709624 0
0.103333332 -0.0141709624 0
0.100000001 -0.0141709624 0
0.0966666639 -0.0141709624 0
0.0933333337 -0.0141709624 0
0.0900000036 -0.0141709624 0
0.086666666 -0.0141709624 0
0.0833333358 -0.0141709624 0
0.0799999982 -0.0141709624 0
0.0766666681 -0.0141709624 0
0.0733333305 -0.0141709624 0
0.0700000003 -0.0141709624 0
0.0666666701 -0.0141709624 0
0.0633333325 -0.0141709624 0
0.0599999987 -0.0141709624 0
0.0566666685 -0.0141709624 0
0.0533333346 -0.0141709624 0
0.0500000007 -0.0141709624 0
0.0466666669 -0.0141709624 0
0.144999996 -0.0170577131 0
0.141666666 -0.0170577131 0
0.138333336 -0.0170577131 0
0.135000005 -0.0170577131 0
0.13166666 -0.0170577131 0
0.12833333 -0.0170577131 0
0.125 -0.0170577131 0
0.12166667 -0.0170577131 0
0.118333332 -0.0170577131 0
0.115000002 -0.0170577131 0
0.111666664 -0.0170577131 0
0.108333334 -0.0170577131 0
0.104999997 -0.0170577131 0
0.101666667 -0.0170577131 0
0.0983333364 -0.0170577131 0
0.0949999988 -0.0170577131 0
0.0916666687 -0.0170577131 0
0.088333331 -0.0170577131 0
0.0850000009 -0.0170577131 0
0.0816666633 -0.0170577131 0
0.0783333331 -0.0170577131 0
0.075000003 -0.0170577131 0
0.0716666654 -0.0170577131 0
0.0683333352 -0.0170577131 0
0.0649999976 -0.0170577131 0
0.0616666675 -0.0170577131 0
0.0583333336 -0.0170577131 0
0.0549999997 -0.0170577131 0
0.0516666658 -0.0170577131 0
0.0483333319 -0.0170577131 0
0.0450000018 -0.0170577131 0
0.143333331 -0.0199444648 0
0.140000001 -0.0199444648 0
0.13666667 -0.0199444648 0
0.13333334 -0.0199444648 0
0.129999995 -0.0199444648 0
0.126666665 -0.0199444648 0
0.123333335 -0.0199444648 0
0.119999997 -0.0199444648 0
0.116666667 -0.0199444648 0
0.113333337 -0.0199444648 0
0.109999999 -0.0199444648 0
0.106666669 -0.0199444648 0
0.103333332 -0.0199444648 0
0.100000001 -0.0199444648 0
0.0966666639 -0.0199444648 0
0.0933333337 -0.0199444648 0
0.0900000036 -0.0199444648 0
0.086666666 -0.0199444648 0
0.0833333358 -0.0199444648 0
0.0799999982 -0.0199444648 0
0.0766666681 -0.0199444648 0
0.0733333305 -0.0199444648 0
0.0700000003 -0.0199444648 0
0.0666666701 -0.0199444648 0
0.0633333325 -0.0199444648 0
0.0599999987 -0.0199444648 0
0.0566666685 -0.0199444648 0
0.0533333346 -0.0199444648 0
0.0500000007 -0.0199444648 0
0.0466666669 -0.0199444648 0
0.043333333 -0.0199444648 0
0.141666666 -0.0228312165 0
0.138333336 -0.0228312165 0
0.135000005 -0.0228312165 0
0.13166666 -0.0228312165 0
0.12833333 -0.0228312165 0
0.125 -0.0228312165 0
0.12166667 -0.0228312165 0
0.118333332 -0.0228312165 0
0.115000002 -0.0228312165 0
0.111666664 -0.0228312165 0
0.108333334 -0.0228312165 0
0.104999997 -0.0228312165 0
0.101666667 -0.0228312165 0
0.0983333364 -0.0228312165 0
0.0949999988 -0.0228312165 0
0.0916666687 -0.0228312165 0
0.088333331 -0.0228312165 0
0.0850000009 -0.0228312165 0
0.0816666633 -0.0228312165 0
0.0783333331 -0.0228312165 0
0.075000003 -0.0228312165 0
0.0716666654 -0.0228312165 0
0.0683333352 -0.0228312165 0
0.0649999976 -0.0228312165 0
0.0616666675 -0.0228312165 0
0.0583333336 -0.0228312165 0
0.0549999997 -0.0228312165 0
0.0516666658 -0.0228312165 0
0.0483333319 -0.0228312165 0
0.0450000018 -0.0228312165 0
0.0416666679 -0.0228312165 0
0.140000001 -0.0257179681 0
0.13666667 -0.0257179681 0
0.13333334 -0.0257179681 0
0.129999995 -0.0257179681 0
0.126666665 -0.0257179681 0
0.123333335 -0.0257179681 0
0.119999997 -0.0257179681 0
0.116666667 -0.0257179681 0
0.113333337 -0.0257179681 0
0.109999999 -0.0257179681 0
0.106666669 -0.0257179681 0
0.103333332 -0.0257179681 0
0.100000001 -0.0257179681 0
0.0966666639 -0.0257179681 0
0.0933333337 -0.0257179681 0
0.0900000036 -0.0257179681 0
0.086666666 -0.0257179681 0
0.0833333358 -0.0257179681 0
0.0799999982 -0.0257179681 0
0.0766666681 -0.0257179681 0
0.0733333305 -0.0257179681 0
0.0700000003 -0.0257179681 0
0.0666666701 -0.0257179681 0
0.0633333325 -0.0257179681 0
0.0599999987 -0.0257179681 0
0.0566666685 -0.0257179681 0
0.0533333346 -0.0257179681 0
0.0500000007 -0.0257179681 0
0.0466666669 -0.0257179681 0
0.043333333 -0.0257179681 0
0.0399999991 -0.0257179681 0
0.138333336 -0.0286047198 0
0.135000005 -0.0286047198 0
0.13166666 -0.0286047198 0
0.12833333 -0.0286047198 0
0.125 -0.0286047198 0
0.12166667 -0.0286047198 0
0.118333332 -0.0286047198 0
0.115000002 -0.0286047198 0
0.111666664 -0.0286047198 0
0.108333334 -0.0286047198 0
0.104999997 -0.0286047198 0
0.101666667 -0.0286047198 0
0.0983333364 -0.0286047198 0
0.0949999988 -0.0286047198 0
0.0916666687 -0.0286047198 0
0.088333331 -0.0286047198 0
0.0850000009 -0.0286047198 0
0.0816666633 -0.0286047198 0
0.0783333331 -0.0286047198 0
0.075000003 -0.0286047198 0
0.0716666654 -0.0286047198 0
0.0683333352 -0.0286047198 0
0.0649999976 -0.0286047198 0
0.0616666675 -0.0286047198 0
0.0583333336 -0.0286047198 0
0.0549999997 -0.0286047198 0
0.0516666658 -0.0286047198 0
0.0483333319 -0.0286047198 0
0.0450000018 -0.0286047198 0
0.0416666679 -0.0286047198 0
0.038333334 -0.0286047198 0
0.13666667 -0.0314914696 0
0.13333334 -0.0314914696 0
0.129999995 -0.0314914696 0
0.126666665 -0.0314914696 0
0.123333335 -0.0314914696 0
0.119999997 -0.0314914696 0
0.116666667 -0.0314914696 0
0.113333337 -0.0314914696 0
0.109999999 -0.0314914696 0
0.106666669 -0.0314914696 0
0.103333332 -0.0314914696 0
0.100000001 -0.0314914696 0
0.0966666639 -0.0314914696 0
0.0933333337 -0.0314914696 0
0.0900000036 -0.0314914696 0
0.086666666 -0.0314914696 0
0.0833333358 -0.0314914696 0
0.0799999982 -0.0314914696 0
0.0766666681 -0.0314914696 0
0.0733333305 -0.0314914696 0
0.0700000003 -0.0314914696 0
0.0666666701 -0.0314914696 0
0.0633333325 -0.0314914696 0
0.0599999987 -0.0314914696 0
0.0566666685 -0.0314914696 0
0.0533333346 -0.0314914696 0
0.0500000007 -0.0314914696 0
0.0466666669 -0.0314914696 0
0.043333333 -0.0314914696 0
0.0399999991 -0.0314914696 0
0.0366666652 -0.0314914696 0
0.135000005 -0.0343782231 0
0.13166666 -0.0343782231 0
0.12833333 -0.0343782231 0
0.125 -0.0343782231 0
0.12166667 -0.0343782231 0
0.118333332 -0.0343782231 0
0.115000002 -0.0343782231 0
0.111666664 -0.0343782231 0
0.108333334 -0.0343782231 0
0.104999997 -0.0343782231 0
0.101666667 -0.0343782231 0
0.0983333364 -0.0343782231 0
0.0949999988 -0.0343782231 0
0.0916666687 -0.0343782231 0
0.088333331 -0.0343782231 0
0.0850000009 -0.0343782231 0
0.0816666633 -0.0343782231 0
0.0783333331 -0.0343782231 0
0.075000003 -0.0343782231 0
0.0716666654 -0.0343782231 0
0.0683333352 -0.0343782231 0
0.0649999976 -0.0343782231 0
0.0616666675 -0.0343782231 0
0.0583333336 -0.0343782231 0
0.0549999997 -0.0343782231 0
0.0516666658 -0.0343782231 0
0.0483333319 -0.0343782231 0
0.0450000018 -0.0343782231 0
0.0416666679 -0.0343782231 0
0.038333334 -0.0343782231 0
0.0350000001 -0.0343782231 0
0.13333334 -0.0372649729 0
0.129999995 -0.0372649729 0
0.126666665 -0.0372649729 0
0.123333335 -0.0372649729 0
0.119999997 -0.0372649729 0
0.116666667 -0.0372649729 0
0.113333337 -0.0372649729 0
0.109999999 -0.0372649729 0
0.106666669 -0.0372649729 0
0.103333332 -0.0372649729 0
0.100000001 -0.0372649729 0
0.0966666639 -0.0372649729 0
0.0933333337 -0.0372649729 0
0.0900000036 -0.0372649729 0
0.086666666 -0.0372649729 0
0.0833333358 -0.0372649729 0
0.0799999982 -0.0372649729 0
0.0766666681 -0.0372649729 0
0.0733333305 -0.0372649729 0
0.0700000003 -0.0372649729 0
0.0666666701 -0.0372649729 0
0.0633333325 -0.0372649729 0
0.0599999987 -0.0372649729 0
0.0566666685 -0.0372649729 0
0.0533333346 -0.0372649729 0
0.0500000007 -0.0372649729 0
0.0466666669 -0.0372649729 0
0.043333333 -0.0372649729 0
0.0399999991 -0.0372649729 0
0.0366666652 -0.0372649729 0
0.0333333351 -0.0372649729 0
0.13166666 -0.0401517227 0
0.12833333 -0.0401517227 0
0.125 -0.0401517227 0
0.12166667 -0.0401517227 0
0.118333332 -0.0401517227 0
0.115000002 -0.0401517227 0
0.111666664 -0.0401517227 0
[...]
POINT_DATA 961
SCALARS Temp float 1
LOOKUP_TABLE default
431.72618815431593
383.5279736069716
342.01196538503865
308.412680002739
282.34546584261903
262.9317164226422
249.0424456416417
239.49015671923283
233.16920300808673
229.14051789647067
226.66441334201045
225.19491865761248
224.3516839140304
223.88324299027246
223.63113791603408
223.50002708839483
223.43539697539748
223.4086128862829
223.40837240091824
223.43777427980757
223.51697484516848
223.69212358748004
224.05182796851486
224.75196259724734
226.04770684402965
228.32814987744536
232.1439961860402
238.21550304240952
247.40988718414891
260.69304727533745
279.3733170605318
384.9159148214822
337.5562833549083
298.554224131991
267.59218910457054
243.98178899553542
226.68027090534338
214.4910181337403
206.22898241255152
200.8363681611573
197.44342639095328
195.38312009227278
194.17412567377337
193.48768238194094
193.1101686616806
192.90912704178535
192.80619714978343
192.75772932931733
192.74248596694557
192.75548589748885
192.80758304898606
192.93106055293322
193.19227253989973
193.71245351092603
194.6966998667177
196.46840759617842
199.50205803340535
204.44264584706212
212.09813367259832
223.3948165673032
239.30467869902571
260.2875354278667
344.65882525090706
299.7874873065705
263.33783788399313
234.8049559600321
213.30296601296342
197.70717445666412
186.81642436564564
179.4900078986622
174.7382476228627
171.76411002550017
169.9657259313044
168.91396239541126
168.3183818814657
167.9916183335929
167.81824684508902
167.73059066595164
167.69187940491662
167.6860974179613
167.71387385500006
167.79432790776102
167.97343702168808
168.34005512791492
169.05025278992002
170.3589117656032
172.6540059264725
176.48431000836754
182.56720321358486
191.76194828992357
204.99489052046718
223.07795062189402
246.73563310260892
312.0527952626182
269.81088473088096
235.7990960388942
209.37968628771534
189.5923359197698
175.30529058348378
165.35903624724236
158.6799868208531
154.3511231220013
151.64112860991858
150.0009496688714
149.04032582505215
148.49540634702916
148.1960070610486
148.03733112581364
147.9582573284694
147.92650036858905
147.93016717679643
147.97539026956406
148.09017881199512
148.33527771863524
148.822951691506
149.74372815921495
151.39878767756028
154.23173720028484
158.84892580097352
166.01430231102498
176.60445132885485
191.51207500605392
211.5562382737013
237.36504954241389
286.6719237481701
246.91583290255267
215.044859031292
190.35896529443053
171.89530075580714
158.56456501528342
149.27420693575962
143.02359805595566
138.96212282007303
136.4119890704142
134.8636399566604
133.95385691935553
133.43619730745732
133.1511575035383
133.0003355750181
132.92664308910767
132.90095448812573
132.9150185691106
132.98054759812973
133.13480733623808
133.4535086976596
134.0715589038516
135.21095980521324
137.21235695250513
140.5627186873554
145.90765121206684
154.03500231963858
165.81951986069234
182.13675629245827
203.75064869930904
231.18655554853217
267.6648897672119
230.08736681493824
199.97829204784443
176.6371980231186
159.14562443627244
146.48189194744765
137.6273223682465
131.64853765575117
127.74937476870694
125.29226386358343
123.79524751975781
122.91282723387
122.40939133853128
122.13179817179365
121.98542707961742
121.91576663740825
121.89616094752527
121.92178956113843
122.00993595367478
122.20699232643021
122.6028258486252
123.35265183997694
124.7049676885299
127.0311492912164
130.8485358833412
136.82583041329102
145.75926524916403
158.51419274464462
175.93276957800867
198.71730371379584
227.31210661852026
253.9668480157779
218.1818699080104
189.4425251477946
167.09228680634865
150.28126765446976
138.0624544530037
129.48542162918352
123.67228591525107
119.86791347732847
117.46296413248862
115.99363774657343
115.12547722703056
114.62930145035304
114.35564496878254
114.21214163429312
114.14605706960991
114.13284252349237
114.1709299380929
114.28293226398377
114.52368050408334
114.99549954564871
115.87045937021082
117.41756409629859
120.02994365486782
124.24382043227271
130.7387707081183
140.30954322230906
153.80368544471392
172.02718429237333
195.6312368709653
225.0038218887286
244.46359902942234
210.0724165342426
182.34353560081385
160.68884776778268
144.3331897570966
132.39874720842337
123.99147464527809
118.27544817030736
114.52442403530593
112.1477219596465
110.69284885932265
109.83192537410412
109.3394406493715
109.06802578016753
108.92671027389633
108.86410032361194
108.85751615786025
108.90838737001398
109.04413848732071
109.32688600579479
109.8691382435108
110.85588588279995
112.57066491560946
115.42044661139894
119.95141423755261
126.84573825743932
136.89035830479432
150.91299180607686
169.6889372105748
193.83283891434772
223.69752943030431
238.11376502234953
204.75115796436572
177.7322810810579
156.54377631776364
140.47990288780588
128.71991061587087
120.41255097539533
114.75140398946748
111.0293849325639
108.66748188858634
107.21994349968301
106.36263395629217
105.87208471833345
105.60213155933933
105.46272603242666
105.40355609061476
105.40358486760549
105.46687723707373
105.62493069290788
105.94572108270206
106.54947111940905
107.63028804584768
109.48105250059575
112.5164493751286
117.28643938806421
124.47088257349174
134.84684663720535
149.22478639904608
168.35767375026833
192.83677909719253
222.9952805400549
234.02479781318885
201.3848400621716
174.84242363333345
153.95306929714766
138.068603255129
126.41155585173425
118.16084118637367
112.52963580628416
108.82289571735211
106.46852563151646
105.02464243994588
104.169156607437
103.67972197789142
103.41088650092887
103.27325889611383
103.2174196938711
103.22372702584342
103.29843035291363
103.47624899952181
103.82954143722164
104.48393255977616
105.63940858255883
107.5941952993535
110.76645801690944
115.70630555726629
123.0892880464961
133.6834532127369
148.28642547272085
167.63674021819332
192.31231146691175
222.63660145187754
231.48498950649855
199.3300445211506
173.09351385428764
152.3883336471716
136.60989964598
125.01142365745936
116.79174115408941
111.1763790549509
107.47746880155685
105.12687741765478
103.68483127816225
102.83033773332582
102.34166690549027
102.07380538161703
101.93785547430805
101.88512132135745
101.89708999128649
101.98170981818177
102.17607744067377
102.55559079451477
103.24935266327417
104.46076618470052
106.49067569226486
109.7581758201146
114.81187324705586
122.32298289839146
133.0526766584186
147.7901985654145
167.26565121185783
192.05016294216813
222.46311805262795
229.96165307844413
198.11844442820967
172.0703772505607
151.47422507405165
135.7562228426176
124.18992199709854
115.98672521428256
110.37958115861034
106.68465797182014
104.33602910641498
102.8950132517652
102.04119502084022
101.55318331920851
101.28625209257382
101.15187764038969
101.10192834474519
101.1187541055468
101.21153995125304
101.41901627800557
101.81853037995587
102.5412242223081
103.7922416340482
105.87339859521502
109.20349606629956
114.32925747876257
121.91845966903983
132.72768281096504
147.54125734526886
167.08491726693887
191.92680116665665
222.38517785341196
229.0787000580263
197.42761075832863
171.49123081807224
150.9572705183606
135.27263858550063
123.72356251537404
115.52902629328798
109.92619823934533
106.23347684047366
103.88607480652783
102.44586619922836
101.59272702771263
101.10544364169974
100.8394834960783
100.70659825798994
100.65907823112636
100.67989426736477
100.77907572846453
100.99639738669784
101.41035671041784
102.15316619235273
103.43071043709905
105.54492686053956
108.91391900005851
114.08281113516566
121.71703721918817
132.57047669938314
147.42484434942125
167.0039211499636
191.87485010189124
222.35619798973272
228.58347836141309
197.04639634806787
171.17392245949222
150.6744355431753
135.00782716851697
123.46798020639037
115.27827104345518
109.6780864975609
105.98703823197458
103.6408611422839
102.20168703945453
101.34951466136599
100.86321856926621
100.5983911677488
100.46697760273726
100.42157211613284
100.44557137091522
100.54955065996793
100.77391073065358
101.19777211065265
101.95383654605386
103.24820582213032
105.38262157194544
108.7745038054442
113.96785771661776
121.62670432705163
132.50350598647526
147.37880521329106
166.97574275370374
191.86159468830462
222.35585064863469
228.3147601791974
196.84310888120135
171.0062057100389
150.5256993936711
134.86912890667827
123.33484226956939
115.14858313183431
109.55090645494158
105.86196356642628
103.5176905917469
102.08028668853976
101.22974905955887
100.74497903622215
100.48164142902652
100.3518217654712
100.30833353080119
100.33486650418837
100.44234347277455
100.67152764218162
101.10185414217395
101.86621830901753
103.17071311575968
105.31683186344254
108.72149744660567
113.9280368145738
121.59974883908465
132.4884517741582
147.3743569381736
166.9807172924518
191.8756980424449
222.3806084406083
228.17433786622593
196.73952963357294
170.92264812870425
150.45329322409643
134.8034772484109
123.27406611070708
115.09187666678865
109.49803735843484
105.81278611889502
103.47202719831037
102.0378632629273
101.19020398115647
100.70792834009633
100.44674324278951
100.31885947070154
100.2772756440283
100.30591180090934
100.41593625769744
100.64833846921972
101.08271794423891
101.85203961817197
103.16233920502378
105.31491600297937
108.7263969641082
113.93976109825488
121.61802477581318
132.5128845700944
147.40476511975854
167.01772401539387
191.92155301530622
222.44089053270363
228.1057894690567
196.69234418966926
170.88829679423736
150.4276881552116
134.78508978235303
123.26257691012252
115.08738611579
109.50064768288577
105.82236716888411
103.48816749476829
102.05986562275481
101.21720516070368
100.73901748694344
100.48107975498311
100.35576882627117
100.31630686408775
100.34685815247006
100.45882073376856
100.6933704706615
101.13022921484247
101.90240268386215
103.21589131778663
105.37189264816591
108.78690285418362
114.00381028554
121.6856430818565
132.58438890419055
147.48122689975486
167.1018916620652
192.01926407300587
222.56358525351524
228.0798111001994
196.68150289383343
170.88928561410015
150.4397900315882
134.80896088200203
123.2990659007065
115.13722706890591
109.56396767640285
105.89864170506968
103.57625254681379
102.15815304878146
101.32386560247389
100.85221529669442
100.59917455972295
100.4774274663889
100.44055379941135
100.47306303332368
100.58664621450019
100.82269778930397
101.26108109755654
102.03487114166253
103.35008028592051
105.50789566212805
108.92482110768232
114.14386212376682
121.82838314867332
132.73115442122835
147.63498272968008
167.26860279064525
192.21049039631154
222.8003049560646
228.08610524842337
196.7043669544133
170.92952428739773
150.49965846001086
134.89100609081603
123.40529496470332
115.26858751657119
109.72006867803178
106.07781038070273
103.77574115534097
102.3745887269526
101.55369500530543
101.09209344507123
100.8462363690769
100.72941582111393
100.69582946159966
100.7305294979189
100.84563504028893
101.08284672002004
101.52222498808779
102.29696463748306
103.61315494798858
105.77206805224452
109.19038169112324
114.4114690666281
122.09949650488215
133.00881885529606
147.92530527782094
167.58314512120998
192.57023891644465
223.24164785292396
228.1312795466792
196.77624675051453
171.03328234298607
150.64097673790346
135.07449198110353
123.63385939059835
115.54263165934508
110.03747496018225
106.43427256840091
104.16543851863524
102.79104608950998
101.99054121892917
101.54367327201241
101.30792912029818
101.1977283308257
101.16830431234862
101.20555495380782
101.32222737953724
101.56045340187346
102.0005738116284
102.77596930525317
104.092890107996
106.25282573581818
109.6728667158613
114.89720238919648
122.59160087188799
133.51345665354168
148.4540530252867
168.15704077952748
193.225683274255
224.03890958917108
228.24179819241823
196.93679617192467
171.25468221024954
150.93293369939693
135.44386129807137
124.08341166835682
116.07050768335965
110.6375574060576
107.09714806528115
104.87990509334355
103.54559064158589
102.77454941769555
102.34820436767232
102.12602334227051
102.02434851623588
102.00004296452576
102.04025410738961
102.15861003197837
102.39782501178675
102.8386202517886
103.61465571729498
104.9324737502667
107.09402136600409
110.51723019224104
115.74791320686522
123.45486460034256
134.40096643814897
149.38689802364084
169.17173060804544
194.38264746388467
225.4334629189049
228.47428370251814
197.26356138489837
171.6942292580633
151.49964461571153
136.14592895193084
124.92108178297615
117.03618825079398
111.71716361130049
108.27240884844724
106.13103626950017
104.8535933760175
104.12289636493927
103.72365362921171
103.5187391386928
103.42751611493846
103.40924088479721
103.45279382864138
103.57296851950012
103.8132306451633
104.25480415645136
105.03177192499795
106.35120573062824
108.51595010408101
111.94559576657495
117.18902558245043
124.92054679186218
135.91245765929548
150.98094450636222
170.9090423357551
196.35898292179226
227.79235112102336
228.93248376393305
197.8934001499521
172.52348482370405
152.5470263619343
137.41777682054206
126.41023304750787
118.72344421177186
113.57457892530046
110.26773603257331
108.2319293914585
107.03086148371796
106.3524357245305
105.98706768683881
105.8029709233953
105.72390203800617
105.71239367098839
105.75957775476896
105.88170522403257
106.1231744022423
106.5658804663322
107.34457964834967
108.66732934943548
110.83869767647465
114.28141184420349
119.54992171093427
127.32807703877029
138.4037157515378
153.6171058074284
173.78644090574434
199.62189877563262
231.645439470538
229.7914257911341
199.0501328600134
174.01542345826496
154.3937349081104
139.6170830514218
128.93901368945873
121.54201948112068
116.63340223881013
113.51453616722921
111.61759726419012
110.51348266927401
109.89907249151656
109.57373074854893
109.4133717772487
109.34768782787498
109.3433997644424
109.39438821100238
109.51863772940382
109.7616871608055
110.2063715330514
110.98858740494451
112.3182300975684
114.50310523201232
117.97162887762305
123.28792229552735
131.15150759736602
142.37446750262336
157.83231120929727
178.39128342831117
204.82205008858932
237.71538839567646
231.32776308145927
201.07689693412414
176.57644336269868
157.5006636276998
143.2474505874579
133.04113999647979
126.04446858147938
121.45624598501246
118.57936480829778
116.85494366423389
115.867020271101
115.32662195567512
115.04594028890139
114.91115995781762
114.85943591629461
114.86249422365829
114.91738574471758
115.04409018394715
115.28957176859467
115.7380839389375
116.52753975507213
117.87122166585065
120.08279133115963
123.60052564997126
129.00447903436987
137.01860285589902
148.490385599731
164.34338222147247
185.50415195496592
212.81206642375747
246.92593039606155
233.94911294324103
204.46408888488054
180.76942201432203
162.48729607606666
148.96719619449155
139.39783449965887
132.92297406417134
128.7380973653653
126.15516236927442
124.6328772647021
123.77625904021272
123.31656217557673
123.08289824513624
122.97415837135594
122.93624757437948
122.94651084392804
123.00548481983581
123.13543338504175
123.38522132408525
123.84140622200331
124.64550533789503
126.0168752508891
128.27930922387256
131.8873393485842
137.44579037944487
145.71431487437383
157.58847129739388
174.05177186769978
196.09862209794701
224.635441865835
260.3734185889877
238.21550401999568
209.86326822199243
187.31672392629824
170.12201915699393
157.56858571903015
148.80986236892417
142.97704889870116
139.27099144087697
137.02448375118902
135.72523708428048
135.0083685160432
134.6315870549714
134.44461591592867
134.36095618016745
134.33609847824587
134.353356465331
134.41700397168984
134.55202091252943
134.81004170993322
135.28153598954066
136.1143711553156
137.53836058436062
139.89395913236442
143.66098023160504
149.48040390942822
158.1602290949584
170.65568164924474
188.01687566475445
211.30295078770556
241.46989950704162
279.2470456605187
244.8404465654329
218.0740246271092
197.06935199410663
181.27366507836447
169.91875617703687
162.13511478589317
157.04714257690316
153.87604545769145
151.9916579395853
150.92386938964773
150.34696214679545
150.05041988799613
149.90721361593376
149.84649533171913
149.833629307425
149.85800933267913
149.92795846728507
150.07196912793782
150.3460359412626
150.84732408973912
151.73452477321825
153.25458373531347
155.77383458253934
159.8089259127789
166.0497970248035
175.36425913702766
188.77326916249262
207.38887970537078
232.3143450905203
264.5167260517076
304.6919970052075
254.6642756015947
229.99732915972427
210.93048637505254
196.8126478405609
186.87080454092822
180.1934868665971
175.91754557227114
173.30758713660333
171.78916755616874
170.94705446171878
170.50198559504503
170.2786067371406
170.17422728894294
170.13367250522523
170.13197225620067
170.16464481351647
170.24468074311736
170.40559003142707
170.71050199549404
171.26780879346043
172.25382098595546
173.94200259675307
176.73634639591003
181.20333332750045
188.09343738108043
198.34022711347615
213.02505654533792
233.2993563426738
260.2658464655291
294.8384573368106
337.6191329978843
268.60771388587665
246.56698244844713
229.6771149470782
217.52130241856258
209.15128279560034
203.6504926796985
200.2036307360886
198.14523613115443
196.9737596063809
196.33831246646068
196.0100783791173
195.84967359621092
195.77815006089574
195.75514279527957
195.7648656499313
195.80923378324712
195.90721454575328
196.10003096894977
196.4624830337645
197.12105588223548
198.27919356995886
200.2488351895648
203.48481833162617
208.61525635467223
216.45723163972713
228.0048478690166
244.37744825893765
266.72133584991417
296.06793644604016
333.1595084826882
378.4572570291496
287.9268186643131
268.204412989504
253.9872053801581
243.9782534230734
237.23636277730023
232.90266074455917
230.2470691318579
228.6963296939548
227.83332102763526
227.3756856922785
227.14500847109036
227.03606855822187
226.99163937748187
226.9847862925557
227.00857109093147
227.07224472806075
227.20325873419625
227.45501401827713
227.9208560355955
228.7549416574547
230.19990529075383
232.61949071001933
236.5313198154219
242.63136844562675
251.79833172953983
265.0650035081101
283.546394281944
308.3209517522331
340.26788027928114
379.85214397367514
425.9943937283148
