# vtk DataFile Version 2.0
Unstructured Grid Example
ASCII
DATASET UNSTRUCTURED_GRID

POINTS 961 float
0.150000006 -0.00839745998 0
0.146666661 -0.00839745998 0
0.143333331 -0.00839745998 0
0.140000001 -0.00839745998 0
0.13666667 -0.00839745998 0
0.13333334 -0.00839745998 0
0.129999995 -0.00839745998 0
0.126666665 -0.00839745998 0
0.123333335 -0.00839745998 0
0.119999997 -0.00839745998 0
0.116666667 -0.00839745998 0
0.113333337 -0.00839745998 0
0.109999999 -0.00839745998 0
0.106666669 -0.00839745998 0
0.103333332 -0.00839745998 0
0.100000001 -0.00839745998 0
0.0966666639 -0.00839745998 0
0.0933333337 -0.00839745998 0
0.0900000036 -0.00839745998 0
0.086666666 -0.00839745998 0
0.0833333358 -0.00839745998 0
0.0799999982 -0.00839745998 0
0.0766666681 -0.00839745998 0
0.0733333305 -0.00839745998 0
0.0700000003 -0.00839745998 0
0.0666666701 -0.00839745998 0
0.0633333325 -0.00839745998 0
0.0599999987 -0.00839745998 0
0.0566666685 -0.00839745998 0
0.0533333346 -0.00839745998 0
0.0500000007 -0.00839745998 0
0.148333326 -0.0112842107 0
0.144999996 -0.0112842107 0
0.141666666 -0.0112842107 0
0.138333336 -0.0112842107 0
0.135000005 -0.0112842107 0
0.13166666 -0.0112842107 0
0.12833333 -0.0112842107 0
0.125 -0.0112842107 0
0.12166667 -0.0112842107 0
0.118333332 -0.0112842107 0
0.115000002 -0.0112842107 0
0.111666664 -0.0112842107 0
0.108333334 -0.0112842107 0
0.104999997 -0.0112842107 0
0.101666667 -0.0112842107 0
0.0983333364 -0.0112842107 0
0.0949999988 -0.0112842107 0
0.0916666687 -0.0112842107 0
0.088333331 -0.0112842107 0
0.0850000009 -0.0112842107 0
0.0816666633 -0.0112842107 0
0.0783333331 -0.0112842107 0
0.075000003 -0.0112842107 0
0.0716666654 -0.0112842107 0
0.0683333352 -0.0112842107 0
0.0649999976 -0.0112842107 0
0.0616666675 -0.0112842107 0
0.0583333336 -0.0112842107 0
0.0549999997 -0.0112842107 0
0.0516666658 -0.0112842107 0
0.0483333319 -0.0112842107 0
0.146666661 -0.0141709624 0
0.143333331 -0.0141709624 0
0.140000001 -0.0141709624 0
0.13666667 -0.0141709624 0
0.13333334 -0.0141709624 0
0.129999995 -0.0141709624 0
0.126666665 -0.0141709624 0
0.123333335 -0.0141709624 0
0.119999997 -0.0141709624 0
0.116666667 -0.0141709624 0
0.113333337 -0.0141709624 0
0.109999999 -0.0141709624 0
0.106666669 -0.0141709624 0
0.103333332 -0.0141709624 0
0.100000001 -0.0141709624 0
0.0966666639 -0.0141709624 0
0.0933333337 -0.0141709624 0
0.0900000036 -0.0141709624 0
0.086666666 -0.0141709624 0
0.0833333358 -0.0141709624 0
0.0799999982 -0.0141709624 0
0.0766666681 -0.0141709624 0
0.0733333305 -0.0141709624 0
0.0700000003 -0.0141709624 0
0.0666666701 -0.0141709624 0
0.0633333325 -0.0141709624 0
0.0599999987 -0.0141709624 0
0.0566666685 -0.0141709624 0
0.0533333346 -0.0141709624 0
0.0500000007 -0.0141709624 0
0.0466666669 -0.0141709624 0
0.144999996 -0.0170577131 0
0.141666666 -0.0170577131 0
0.138333336 -0.0170577131 0
0.135000005 -0.0170577131 0
0.13166666 -0.0170577131 0
0.12833333 -0.0170577131 0
0.125 -0.0170577131 0
0.12166667 -0.0170577131 0
0.118333332 -0.0170577131 0
0.115000002 -0.0170577131 0
0.111666664 -0.0170577131 0
0.108333334 -0.0170577131 0
0.104999997 -0.0170577131 0
0.101666667 -0.0170577131 0
0.0983333364 -0.0170577131 0
0.0949999988 -0.0170577131 0
0.0916666687 -0.0170577131 0
0.088333331 -0.0170577131 0
0.0850000009 -0.0170577131 0
0.0816666633 -0.0170577131 0
0.0783333331 -0.0170577131 0
0.075000003 -0.0170577131 0
0.0716666654 -0.0170577131 0
0.0683333352 -0.0170577131 0
0.0649999976 -0.0170577131 0
0.0616666675 -0.0170577131 0
0.0583333336 -0.0170577131 0
0.0549999997 -0.0170577131 0
0.0516666658 -0.0170577131 0
0.0483333319 -0.0170577131 0
0.0450000018 -0.0170577131 0
0.143333331 -0.0199444648 0
0.140000001 -0.0199444648 0
0.13666667 -0.0199444648 0
0.13333334 -0.0199444648 0
0.129999995 -0.0199444648 0
0.126666665 -0.0199444648 0
0.123333335 -0.0199444648 0
0.119999997 -0.0199444648 0
0.116666667 -0.0199444648 0
0.113333337 -0.0199444648 0
0.109999999 -0.0199444648 0
0.106666669 -0.0199444648 0
0.103333332 -0.0199444648 0
0.100000001 -0.0199444648 0
0.0966666639 -0.0199444648 0
0.0933333337 -0.0199444648 0
0.0900000036 -0.0199444648 0
0.086666666 -0.0199444648 0
0.0833333358 -0.0199444648 0
0.0799999982 -0.0199444648 0
0.0766666681 -0.0199444648 0
0.0733333305 -0.0199444648 0
0.0700000003 -0.0199444648 0
0.0666666701 -0.0199444648 0
0.0633333325 -0.0199444648 0
0.0599999987 -0.0199444648 0
0.0566666685 -0.0199444648 0
0.0533333346 -0.0199444648 0
0.0500000007 -0.0199444648 0
0.0466666669 -0.0199444648 0
0.043333333 -0.0199444648 0
0.141666666 -0.0228312165 0
0.138333336 -0.0228312165 0
0.135000005 -0.0228312165 0
0.13166666 -0.0228312165 0
0.12833333 -0.0228312165 0
0.125 -0.0228312165 0
0.12166667 -0.0228312165 0
0.118333332 -0.0228312165 0
0.115000002 -0.0228312165 0
0.111666664 -0.0228312165 0
0.108333334 -0.0228312165 0
0.104999997 -0.0228312165 0
0.101666667 -0.0228312165 0
0.0983333364 -0.0228312165 0
0.0949999988 -0.0228312165 0
0.0916666687 -0.0228312165 0
0.088333331 -0.0228312165 0
0.0850000009 -0.0228312165 0
0.0816666633 -0.0228312165 0
0.0783333331 -0.0228312165 0
0.075000003 -0.0228312165 0
0.0716666654 -0.0228312165 0
0.0683333352 -0.0228312165 0
0.0649999976 -0.0228312165 0
0.0616666675 -0.0228312165 0
0.0583333336 -0.0228312165 0
0.0549999997 -0.0228312165 0
0.0516666658 -0.0228312165 0
0.0483333319 -0.0228312165 0
0.0450000018 -0.0228312165 0
0.0416666679 -0.0228312165 0
0.140000001 -0.0257179681 0
0.13666667 -0.0257179681 0
0.13333334 -0.0257179681 0
0.129999995 -0.0257179681 0
0.126666665 -0.0257179681 0
0.123333335 -0.0257179681 0
0.119999997 -0.0257179681 0
0.116666667 -0.0257179681 0
0.113333337 -0.0257179681 0
0.109999999 -0.0257179681 0
0.106666669 -0.0257179681 0
0.103333332 -0.0257179681 0
0.100000001 -0.0257179681 0
0.0966666639 -0.0257179681 0
0.0933333337 -0.0257179681 0
0.0900000036 -0.0257179681 0
0.086666666 -0.0257179681 0
0.0833333358 -0.0257179681 0
0.0799999982 -0.0257179681 0
0.0766666681 -0.0257179681 0
0.0733333305 -0.0257179681 0
0.0700000003 -0.0257179681 0
0.0666666701 -0.0257179681 0
0.0633333325 -0.0257179681 0
0.0599999987 -0.0257179681 0
0.0566666685 -0.0257179681 0
0.0533333346 -0.0257179681 0
0.0500000007 -0.0257179681 0
0.0466666669 -0.0257179681 0
0.043333333 -0.0257179681 0
0.0399999991 -0.0257179681 0
0.138333336 -0.0286047198 0
0.135000005 -0.0286047198 0
0.13166666 -0.0286047198 0
0.12833333 -0.0286047198 0
0.125 -0.0286047198 0
0.12166667 -0.0286047198 0
0.118333332 -0.0286047198 0
0.115000002 -0.0286047198 0
0.111666664 -0.0286047198 0
0.108333334 -0.0286047198 0
0.104999997 -0.0286047198 0
0.101666667 -0.0286047198 0
0.0983333364 -0.0286047198 0
0.0949999988 -0.0286047198 0
0.0916666687 -0.0286047198 0
0.088333331 -0.0286047198 0
0.0850000009 -0.0286047198 0
0.0816666633 -0.0286047198 0
0.0783333331 -0.0286047198 0
0.075000003 -0.0286047198 0
0.0716666654 -0.0286047198 0
0.0683333352 -0.0286047198 0
0.0649999976 -0.0286047198 0
0.0616666675 -0.0286047198 0
0.0583333336 -0.0286047198 0
0.0549999997 -0.0286047198 0
0.0516666658 -0.0286047198 0
0.0483333319 -0.0286047198 0
0.0450000018 -0.0286047198 0
0.0416666679 -0.0286047198 0
0.038333334 -0.0286047198 0
0.13666667 -0.0314914696 0
0.13333334 -0.0314914696 0
0.129999995 -0.0314914696 0
0.126666665 -0.0314914696 0
0.123333335 -0.0314914696 0
0.119999997 -0.0314914696 0
0.116666667 -0.0314914696 0
0.113333337 -0.0314914696 0
0.109999999 -0.0314914696 0
0.106666669 -0.0314914696 0
0.103333332 -0.0314914696 0
0.100000001 -0.0314914696 0
0.0966666639 -0.0314914696 0
0.0933333337 -0.0314914696 0
0.0900000036 -0.0314914696 0
0.086666666 -0.0314914696 0
0.0833333358 -0.0314914696 0
0.0799999982 -0.0314914696 0
0.0766666681 -0.0314914696 0
0.0733333305 -0.0314914696 0
0.0700000003 -0.0314914696 0
0.0666666701 -0.0314914696 0
0.0633333325 -0.0314914696 0
0.0599999987 -0.0314914696 0
0.0566666685 -0.0314914696 0
0.0533333346 -0.0314914696 0
0.0500000007 -0.0314914696 0
0.0466666669 -0.0314914696 0
0.043333333 -0.0314914696 0
0.0399999991 -0.0314914696 0
0.0366666652 -0.0314914696 0
0.135000005 -0.0343782231 0
0.13166666 -0.0343782231 0
0.12833333 -0.0343782231 0
0.125 -0.0343782231 0
0.12166667 -0.0343782231 0
0.118333332 -0.0343782231 0
0.115000002 -0.0343782231 0
0.111666664 -0.0343782231 0
0.108333334 -0.0343782231 0
0.104999997 -0.0343782231 0
0.101666667 -0.0343782231 0
0.0983333364 -0.0343782231 0
0.0949999988 -0.0343782231 0
0.0916666687 -0.0343782231 0
0.088333331 -0.0343782231 0
0.0850000009 -0.0343782231 0
0.0816666633 -0.0343782231 0
0.0783333331 -0.0343782231 0
0.075000003 -0.0343782231 0
0.0716666654 -0.0343782231 0
0.0683333352 -0.0343782231 0
0.0649999976 -0.0343782231 0
0.0616666675 -0.0343782231 0
0.0583333336 -0.0343782231 0
0.0549999997 -0.0343782231 0
0.0516666658 -0.0343782231 0
0.0483333319 -0.0343782231 0
0.0450000018 -0.0343782231 0
0.0416666679 -0.0343782231 0
0.038333334 -0.0343782231 0
0.0350000001 -0.0343782231 0
0.13333334 -0.0372649729 0
0.129999995 -0.0372649729 0
0.126666665 -0.0372649729 0
0.123333335 -0.0372649729 0
0.119999997 -0.0372649729 0
0.116666667 -0.0372649729 0
0.113333337 -0.0372649729 0
0.109999999 -0.0372649729 0
0.106666669 -0.0372649729 0
0.103333332 -0.0372649729 0
0.100000001 -0.0372649729 0
0.0966666639 -0.0372649729 0
0.0933333337 -0.0372649729 0
0.0900000036 -0.0372649729 0
0.086666666 -0.0372649729 0
0.0833333358 -0.0372649729 0
0.0799999982 -0.0372649729 0
0.0766666681 -0.0372649729 0
0.0733333305 -0.0372649729 0
0.0700000003 -0.0372649729 0
0.0666666701 -0.0372649729 0
0.0633333325 -0.0372649729 0
0.0599999987 -0.0372649729 0
0.0566666685 -0.0372649729 0
0.0533333346 -0.0372649729 0
0.0500000007 -0.0372649729 0
0.0466666669 -0.0372649729 0
0.043333333 -0.0372649729 0
0.0399999991 -0.0372649729 0
0.0366666652 -0.0372649729 0
0.0333333351 -0.0372649729 0
0.13166666 -0.0401517227 0
0.12833333 -0.0401517227 0
0.125 -0.0401517227 0
0.12166667 -0.0401517227 0
0.118333332 -0.0401517227 0
0.115000002 -0.0401517227 0
0.111666664 -0.0401517227 0
[...]
POINT_DATA 961
SCALARS Temp float 1
LOOKUP_TABLE default
360.72292190230615
311.03611401906073
271.8474610308344
243.51958268070265
224.37280576308063
212.24106578636085
205.01508723977415
200.95574603276103
198.79675595618806
197.70524759328353
197.1785761207437
196.9350835232351
196.82682380095116
196.78037890526272
196.7610967186022
196.75333715860617
196.750344891794
196.74937990562626
196.7496428636318
196.75179517583746
196.75904060240384
196.7809122916015
196.8428667874484
197.00761817049963
197.41700975062142
198.36306310353498
200.38727493735183
204.38360722081083
211.64959626147635
223.8229151748462
242.98414676055924
311.0361563694569
264.03333894282264
228.96105089000417
204.34711230975665
188.15398768559882
178.14836303042685
172.32594534454984
169.12416969259823
167.45400972596926
166.62429605590256
166.2301981615738
166.0505502739342
165.97168328771434
165.93823272471602
165.9244904027439
165.91903146026328
165.91700807326825
165.91658938123203
165.91760837348983
165.92175123956142
165.93474302414793
165.97253451250367
166.07586804534432
166.34064065651128
166.97346838934112
168.37796052818524
171.26120906015157
176.72045593525
186.2407594078803
201.54635639323112
223.82293450178233
271.84742319054754
228.96103525256078
197.51238813929615
175.809593082486
161.7202753079886
153.10543552897664
148.1324896708049
145.41395688693552
144.00167999662858
143.3019235637817
142.97003855686037
142.81883688797814
142.7524533109038
142.72428449015786
142.71271085365063
142.70813579292832
142.70653824590784
142.70656164036834
142.7086270723681
142.71578382585045
142.73725419388626
142.79751006850606
142.95635145707962
143.34820846910984
144.24894089041263
146.17030988410463
149.96093988183713
156.86068897397658
168.43013845592372
186.24074992060096
211.64960468858982
243.51953704268414
204.34709147348
175.80959682988288
156.19804965357687
143.48885647444087
135.71578803344752
131.2205845124299
128.75612924920645
127.4712934534863
126.83219373767197
126.52785523205361
126.3886539214897
126.32730691087853
126.30118479831648
126.29042984872589
126.28620938583985
126.2848803905724
126.28543154783792
126.28898875127315
126.30038623009128
126.33327510617943
126.42229297883024
126.6484300015122
127.18565910190935
128.3745801018492
130.81713627269735
135.46255369784697
143.62520436859108
156.8607023989768
176.72046845940832
204.3835989861598
224.37276955105298
188.15397218305074
161.7202690231495
143.48890303976538
131.61808545585308
124.3191641680984
120.07510414709938
117.7359929194444
116.51046673201573
115.89811756677904
115.60534251310006
115.47095468008125
115.4115464072224
115.3861873394599
115.37573972593444
115.37169518365586
115.37063001458404
115.3718842788917
115.37744673304026
115.3943152186717
115.44121031586324
115.5636231278699
115.86348131400075
116.55050349436279
118.01796734776235
120.93196868707041
126.30000900456947
135.4625480421629
149.96093612882356
171.26120669583534
200.38728128337084
212.24103250117338
178.14838861795346
153.10546924467718
135.71576253275992
124.3191547723078
117.27025275904947
113.15032122330898
110.8695703874066
109.67017843039389
109.06903280533939
108.78088207001913
108.64833844792359
108.58964587476761
108.56456476232144
108.55424676623662
108.55033732940512
108.549590286005
108.55174660298435
108.55979404060152
108.58311099373368
108.64563570883368
108.80321292794054
109.17610546699636
110.00240476244107
111.71250893509168
115.01104201530748
120.93196686149308
130.81713736371432
146.17031667241224
168.37794106436073
198.36305542924606
205.01509136561342
172.32596214337013
148.13252643663077
131.22055452115845
120.0750937908952
113.15031911779872
109.08839743705083
106.83344547721747
105.64501951050568
105.04835589147113
104.76197517063557
104.63011023486163
104.57167439836
104.54669759097965
104.53645402799795
104.53268633807954
104.53232807067405
104.53556035764773
104.54643138076676
104.57668743963319
104.6550825047281
104.8462639842028
105.28469592715203
106.22817639114051
108.1295912451688
111.71250664901824
118.01796204953037
128.37457196413288
144.24893812208506
166.97346581878475
197.41701884550062
200.95575846050815
169.1241918075371
145.41390848830602
128.756104203747
117.73599045313716
110.86957634572569
106.8334442421336
104.58937375271407
103.40535150864196
102.81041126303603
102.5246822925718
102.39305927968752
102.33471511704712
102.30978588848907
102.29960627612672
102.29600005463493
102.29608823463072
102.3005020457434
102.3143104969285
102.35138151060427
102.44445204631609
102.66482738012968
103.1566720611036
104.18968016834717
106.22817538479954
110.00240347578232
116.55050426368577
127.18565986752432
143.34819570741593
166.34062217708524
197.00760848970341
198.79676060546655
167.45403974481223
144.00163624420057
127.47127696951893
116.5104675215173
109.67017300051656
105.64501874222721
103.40535448163527
102.22303624705144
101.62873456650986
101.34323829333529
101.2116999936398
101.15339105627878
101.12849269835586
101.1183791018732
101.11495148000691
101.11551440037671
101.12111984129942
101.1377265630689
101.18091195363995
101.2863586033566
101.52984167437776
102.0613354424577
103.15667293843354
105.28469583915147
109.17610463685921
115.8634802462953
126.64842631622666
142.95635492408746
166.0758740905082
196.84288520104556
197.70527849650682
166.62423290378817
143.30190299258302
126.83219138753826
115.8981278030895
109.06903229478166
105.04835892360427
102.81041090783002
101.62873421084763
101.03466118064573
100.74924701063149
100.61773907270519
100.55944771585528
100.53457680905005
100.52453264493197
100.52128920917104
100.52231743620052
100.52902638845973
100.54807507204006
100.59627881713172
100.71126426027419
100.97145736508105
101.52984114025438
102.66482712596216
104.84626393998215
108.80321273147183
115.56362331321598
126.42227898505729
142.7974966893797
165.97251833481448
196.78090329308833
197.17863254826753
166.23015013564492
142.97002893801218
126.52786011439105
115.60533623934433
108.78088337853163
104.76197952113853
102.52468236820212
101.34323892200497
100.7492469822519
100.46386188644614
100.33236676503586
100.27408850717174
100.24924501675792
100.23927084262091
100.23620355860585
100.23765196213034
100.24530006405075
100.26630389259938
100.3182824741919
100.44000297148034
100.71126464923141
101.28635877631949
102.4444515174868
104.65508156965453
108.64563473256545
115.4412078297939
126.3332737424287
142.7372587158692
165.93475137711403
196.75902737803958
196.93502644644423
166.05052077892614
142.8188366480514
126.38866553544901
115.47094937132307
108.64834103189082
104.63010817263472
102.393059677294
101.21169889036507
100.61773909005849
100.33236700537489
100.20088106684378
100.1426161467817
100.11780082345263
100.10789336077185
100.10498252861069
100.10678108442893
100.11516470125959
100.1376072563862
100.1921942325914
100.31828274110133
100.59627904138948
101.18091173095983
102.35138251861704
104.57668923914952
108.58311502800072
115.39431177493783
126.30038150911264
142.71578475188153
165.9217525890259
196.751809001536
196.82679952220528
165.9716810792324
142.75247084876568
126.32729783107995
115.41154833442165
108.58965380881975
104.57167392365157
102.33471693441551
101.15339047320823
100.5594480050973
100.2740883658595
100.14261607266741
100.08436898731722
100.05958423246311
100.04973834275035
100.04695792254657
100.04902704880719
100.0579423565464
100.08136036045877
100.13760709177106
100.26630383195233
100.54807539066626
101.13772572688026
102.31431014367125
104.54643063719627
108.55979257638063
115.377445486716
126.28898741224278
142.70863292077564
165.9175862191552
196.74964617429544
196.7803595658067
165.93823344754168
142.7243064453191
126.30117578920947
115.38619003533996
108.56456043682822
104.54669774140685
102.30978459062246
101.12849234342163
100.5345772712183
100.2492448279556
100.11780080422655
100.05958421683344
100.03483782223933
100.02505075725671
100.02237544107786
100.02464075687931
100.03391276349218
100.05794233418328
100.1151647430973
100.24530002711136
100.5290265832789
101.12111976621192
102.30050303653087
104.53556239236532
108.55174460398067
115.37188128793974
126.28542756413707
142.7065623973056
165.9165930774788
196.74937945248797
196.76109703373405
165.924509505182
142.71269916262912
126.29043021374879
115.37575071436277
108.55424551928385
104.53645727452484
102.29960589492038
101.11837906410945
100.52453254788679
100.23927082834086
100.10789341254397
100.04973832741923
100.02505076993833
100.0153284435748
100.01274080003914
100.01514378214243
100.02464074498675
100.04902701265513
100.10678102382366
100.23765197447915
100.52231729721322
101.11551363082764
102.29608788286541
104.53232717490403
108.54958966791106
115.37062941884213
126.28488007844324
142.70652441915126
165.91700450799706
196.75033716919896
196.7533374543226
165.91905252783337
142.7081238887232
126.28621140963763
115.37168723170436
108.55033696041966
104.53268359435708
102.29600012615461
101.11495186833122
100.52128908229068
100.23620358123068
100.10498240118773
100.04695792447268
100.02237542062497
100.01274080005284
100.01023760580476
100.01274080483228
100.02237542792362
100.04695796396419
100.10498245782343
100.23620350474798
100.52128943736805
101.1149514610962
102.29600118897594
104.53268517308483
108.55033556680124
115.37169348165295
126.28620573250637
142.70814024816593
165.91902246611747
196.75333981939585
196.75036488264888
165.9169848005417
142.70654371730416
126.2848955033571
115.37062729870487
108.54959525327263
104.53232725407277
102.29608912116498
101.11551362462798
100.52231765801453
100.23765219240782
100.1067810158128
100.04902709689033
100.02464074983757
100.0151437867053
100.012740808609
100.01532845152178
100.02505074492962
100.04973834084001
100.10789332018997
100.23927066085257
100.5245325356479
101.11837839225232
102.2996057675598
104.53645388502977
108.5542465627324
115.37574012189752
126.2904156285812
142.71270832068532
165.92447497449427
196.76108857406803
196.74941090085034
165.91657179803315
142.70657084103553
126.28541739445859
115.37188327847888
108.55174152544059
104.5355602825208
102.30050373483542
101.121119019563
100.52902673376484
100.24529990042551
100.11516465489049
100.05794231671172
100.0339127516981
100.02464076544781
100.02237544445141
100.0250507601358
100.03483783878363
100.0595842398965
100.11780076428334
100.24924498431209
100.53457703959025
101.12849283345331
102.30978530414187
104.54669669135194
108.56456355549089
115.386184935589
126.30118380506148
142.72427691646564
165.93822422174765
196.78037986996134
196.74961066449646
165.9175986288781
142.70864265793247
126.288975065361
115.3774485936737
108.55978909778018
104.54643090543513
102.31430904021356
101.13772591853642
100.54807558350272
100.26630368580334
100.13760721799784
100.08136033848658
100.0579423436574
100.04902704693833
100.04695792085964
100.0497383350642
100.05958424740199
100.08436896403747
100.14261604478477
100.27408846341258
100.55944789894461
101.15339085787238
102.33471593126407
104.57167604608854
108.58964976780268
115.41154262225423
126.32730891588334
142.75245291779694
165.97168307184387
196.82683347484482
196.7517882213257
165.92176330998532
142.7157681907582
126.30038369299744
115.394306127536
108.5831111723349
104.57669044629623
102.35138109099881
101.180912045205
100.59627878891905
100.31828256026068
100.19219419428296
100.13760722674924
100.11516472441231
100.10678109541445
100.10498253024346
100.10789336664499
100.117800831415
100.14261612504313
100.20088113184924
100.33236687902004
100.61773929581031
101.21169915218042
102.39305890097302
104.63010946757232
108.6483370653731
115.47095333109857
126.38864359486031
142.81882959335655
166.05054085774853
196.9350839203933
196.75903613618746
165.93476026714748
142.73723872790492
126.33327755662432
115.44120183694237
108.64563519618711
104.65507954776893
102.44445192961555
101.28635918795605
100.71126436029157
100.44000325119819
100.31828244543847
100.26630386836563
100.24530005597171
100.23765194754016
100.23620356053866
100.23927086255307
100.24924500034295
100.2740885007947
100.33236680497225
100.46386181667559
100.74924713203535
101.34323830407529
102.52468335148174
104.76197689341859
108.78087971242527
115.6053435485046
126.52785021265635
142.97003817279946
166.23019818047345
197.17857291030907
196.7809079200878
165.97249120417777
142.79749893046224
126.42226996560181
115.56361710385637
108.80321490274095
104.84626146925949
102.66482778296374
101.52984068890198
100.971457025892
100.71126418212943
100.59627874332274
100.548075126885
100.52902644065318
100.52231744420475
100.52128921001302
100.52453264418753
100.53457679410221
100.5594477440521
100.61773901243401
100.74924711259835
101.03466126670143
101.62873377480646
102.81041157478802
105.04835677691183
109.06903552287226
115.89811587056195
126.83219265142597
143.30193137532459
166.62430682124045
197.70526456292927
196.84291206532913
166.0758642476159
142.95637365081862
126.64842652233419
115.86348744351233
109.17610531399214
105.28469938713826
103.15667567501168
102.06133637879456
101.52984350551363
101.28635975829219
101.18091302746465
101.1377276298981
101.12112086643542
101.11551549578087
101.11495261886091
101.11838015053894
101.12849379802873
101.15339214251507
101.21170097734436
101.3432393326685
101.62873509185556
102.22303735717873
103.40535326013422
105.64501651817685
109.67017675530197
116.51046040439785
127.4712830492493
144.0016718515334
167.4539825650681
198.79673847399073
197.0076012063972
166.34064590816655
143.34819695900254
127.1856605905682
116.55051479409146
110.00240434057791
106.2281801919458
104.18968226511892
103.15667392701519
102.66482948543404
102.4444540349924
102.35138376898712
102.314312812559
102.3005042029936
102.2960903503221
102.29600215423628
102.29960837497944
102.30978801669283
102.33471720077101
102.39306146159706
102.52468431246193
102.81041297661316
103.40535361043256
104.5893740368638
106.83344726512756
110.86956969645844
117.73599135070097
128.75612218282396
145.4139546238798
169.1241631736443
200.95574330392424
197.4170026574359
166.97348435368144
144.2489334418397
128.3745796618092
118.01796104212876
111.71251139254544
108.12959534851964
106.22817769647654
105.28469906221497
104.84626611982812
104.6550844390195
104.5766893284546
104.5464331355185
104.53556233906114
104.5323301858261
104.53268821158213
104.53645608331188
104.54669958595835
104.57167629921369
104.63011223853863
104.76197698502679
105.0483580824288
105.64502066271565
106.83344679077983
109.08840278363955
113.15031906132933
120.07510340705925
131.2205848765033
148.1324861697814
172.32594208036238
205.01509334897435
198.36306300122087
168.37792580596684
146.17030536118995
130.81714376648395
120.93196158209233
115.01104442784231
111.71250804519495
110.0024039906872
109.1761052678621
108.80321256692856
108.64563601234936
108.58311158005283
108.55979422850002
108.55174666604897
108.54959028959095
108.55033739112389
108.55424686729569
108.56456487592668
108.58964619114423
108.64833848465878
108.78088218654887
109.06903332158718
109.67017824058152
110.86957228083565
113.1503184447614
117.2702557164204
124.31916997107479
135.71579706213197
153.10544688560083
178.14836976296306
212.24103547817546
200.38728009159775
171.26118185830776
149.96093183046352
135.46253402755525
126.30000521506355
120.93196516619547
118.0179600579554
116.55049949109534
115.8634761141077
115.56361753708995
115.44120458422223
115.39430912790625
115.37744118913217
115.3718790422587
115.37062425880899
115.37168985596162
115.3757342382805
115.38618169829236
115.41154092497969
115.47094919023154
115.60533721643648
115.89811173721716
116.5104617913356
117.7359903342051
120.07509865721822
124.31916532177226
131.61809999063897
143.4888651946554
161.72024134965685
188.15395500879714
224.37277302769547
204.3836094586854
176.7204803722198
156.86073433364945
143.6252184757411
135.46257640888936
130.8171533179613
128.37459671135636
127.1856761116969
126.64844650385676
126.42231066224093
126.33329338516151
126.30040373501387
126.28900596835904
126.28544861139959
126.28489767142284
126.28622668255568
126.29044719656754
126.30120248822737
126.32732401006909
126.38867128060625
126.52787277834061
126.832210606084
127.47131100433202
128.7561434754693
131.22060099831845
135.71580987689663
143.48888637988742
156.19802967365365
175.80956758324174
204.34706474463042
243.51954169369853
211.6496142446208
186.240781553794
168.43015359922254
156.8607141082471
149.96096364096098
146.1703275338558
144.24896247641797
143.3482284893785
142.956370817332
142.79752911164388
142.7372724480772
142.71580299036546
142.7086467556547
142.70658054962348
142.7065578788837
142.70815512061827
142.71272993395203
142.72430370994292
142.7524726221837
142.81885613947995
142.97005718064008
143.30194321932728
144.00170016654894
145.41397384426242
148.1325092333766
153.10545999710644
161.72025538659497
175.8095713781055
197.51236000364923
228.96100789884105
271.84742375106833
223.82293657973162
201.54637980854054
186.2407625799208
176.7204696727555
171.26121658128267
168.37796780419816
166.97347625832342
166.34064795948535
166.07587729849132
165.97254444704458
165.93475173314002
165.92175958686036
165.91761649355058
165.91659803863476
165.91701662492127
165.91904009941044
165.9244994791981
165.9382409185395
165.97169200896857
166.05055910054838
166.23020649261017
166.62430464956893
167.45401642879588
169.12417814495626
172.32595684555076
178.14837915305569
188.15396199425612
204.347074006653
228.9610027804126
264.0332908607434
311.0360561048241
242.9841630950886
223.82291006749713
211.64960198927557
204.3836119937105
200.38727254846583
198.3630654644748
197.4170100430516
197.00761912232048
196.84286733148053
196.7809105961879
196.75904047458397
196.75179543237314
196.74964288243947
196.74938046524937
196.7503450706795
196.75333734814274
196.76109622425614
196.78037937792345
196.8268238088742
196.93508295484887
197.17857667709853
197.70524862468508
198.79675510766924
200.95574633275194
205.01508878863444
212.2410310065782
224.37277015770965
243.51953488065573
271.84740162919013
311.03603822224187
360.72251426564486
