# vtk DataFile Version 2.0
Unstructured Grid Example
ASCII
DATASET UNSTRUCTURED_GRID

POINTS 961 float
0.150000006 -0.00839745998 0
0.146666661 -0.00839745998 0
0.143333331 -0.00839745998 0
0.140000001 -0.00839745998 0
0.13666667 -0.00839745998 0
0.13333334 -0.00839745998 0
0.129999995 -0.00839745998 0
0.126666665 -0.00839745998 0
0.123333335 -0.00839745998 0
0.119999997 -0.00839745998 0
0.116666667 -0.00839745998 0
0.113333337 -0.00839745998 0
0.109999999 -0.00839745998 0
0.106666669 -0.00839745998 0
0.103333332 -0.00839745998 0
0.100000001 -0.00839745998 0
0.0966666639 -0.00839745998 0
0.0933333337 -0.00839745998 0
0.0900000036 -0.00839745998 0
0.086666666 -0.00839745998 0
0.0833333358 -0.00839745998 0
0.0799999982 -0.00839745998 0
0.0766666681 -0.00839745998 0
0.0733333305 -0.00839745998 0
0.0700000003 -0.00839745998 0
0.0666666701 -0.00839745998 0
0.0633333325 -0.00839745998 0
0.0599999987 -0.00839745998 0
0.0566666685 -0.00839745998 0
0.0533333346 -0.00839745998 0
0.0500000007 -0.00839745998 0
0.148333326 -0.0112842107 0
0.144999996 -0.0112842107 0
0.141666666 -0.0112842107 0
0.138333336 -0.0112842107 0
0.135000005 -0.0112842107 0
0.13166666 -0.0112842107 0
0.12833333 -0.0112842107 0
0.125 -0.0112842107 0
0.12166667 -0.0112842107 0
0.118333332 -0.0112842107 0
0.115000002 -0.0112842107 0
0.111666664 -0.0112842107 0
0.108333334 -0.0112842107 0
0.104999997 -0.0112842107 0
0.101666667 -0.0112842107 0
0.0983333364 -0.0112842107 0
0.0949999988 -0.0112842107 0
0.0916666687 -0.0112842107 0
0.088333331 -0.0112842107 0
0.0850000009 -0.0112842107 0
0.0816666633 -0.0112842107 0
0.0783333331 -0.0112842107 0
0.075000003 -0.0112842107 0
0.0716666654 -0.0112842107 0
0.0683333352 -0.0112842107 0
0.0649999976 -0.0112842107 0
0.0616666675 -0.0112842107 0
0.0583333336 -0.0112842107 0
0.0549999997 -0.0112842107 0
0.0516666658 -0.0112842107 0
0.0483333319 -0.0112842107 0
0.146666661 -0.0141709624 0
0.143333331 -0.0141709624 0
0.140000001 -0.0141709624 0
0.13666667 -0.0141709624 0
0.13333334 -0.0141709624 0
0.129999995 -0.0141709624 0
0.126666665 -0.0141709624 0
0.123333335 -0.0141709624 0
0.119999997 -0.0141709624 0
0.116666667 -0.0141709624 0
0.113333337 -0.0141709624 0
0.109999999 -0.0141709624 0
0.106666669 -0.0141709624 0
0.103333332 -0.0141709624 0
0.100000001 -0.0141709624 0
0.0966666639 -0.0141709624 0
0.0933333337 -0.0141709624 0
0.0900000036 -0.0141709624 0
0.086666666 -0.0141709624 0
0.0833333358 -0.0141709624 0
0.0799999982 -0.0141709624 0
0.0766666681 -0.0141709624 0
0.0733333305 -0.0141709624 0
0.0700000003 -0.0141709624 0
0.0666666701 -0.0141709624 0
0.0633333325 -0.0141709624 0
0.0599999987 -0.0141709624 0
0.0566666685 -0.0141709624 0
0.0533333346 -0.0141709624 0
0.0500000007 -0.0141709624 0
0.0466666669 -0.0141709624 0
0.144999996 -0.0170577131 0
0.141666666 -0.0170577131 0
0.138333336 -0.0170577131 0
0.135000005 -0.0170577131 0
0.13166666 -0.0170577131 0
0.12833333 -0.0170577131 0
0.125 -0.0170577131 0
0.12166667 -0.0170577131 0
0.118333332 -0.0170577131 0
0.115000002 -0.0170577131 0
0.111666664 -0.0170577131 0
0.108333334 -0.0170577131 0
0.104999997 -0.0170577131 0
0.101666667 -0.0170577131 0
0.0983333364 -0.0170577131 0
0.0949999988 -0.0170577131 0
0.0916666687 -0.0170577131 0
0.088333331 -0.0170577131 0
0.0850000009 -0.0170577131 0
0.0816666633 -0.0170577131 0
0.0783333331 -0.0170577131 0
0.075000003 -0.0170577131 0
0.0716666654 -0.0170577131 0
0.0683333352 -0.0170577131 0
0.0649999976 -0.0170577131 0
0.0616666675 -0.0170577131 0
0.0583333336 -0.0170577131 0
0.0549999997 -0.0170577131 0
0.0516666658 -0.0170577131 0
0.0483333319 -0.0170577131 0
0.0450000018 -0.0170577131 0
0.143333331 -0.0199444648 0
0.140000001 -0.0199444648 0
0.13666667 -0.0199444648 0
0.13333334 -0.0199444648 0
0.129999995 -0.0199444648 0
0.126666665 -0.0199444648 0
0.123333335 -0.0199444648 0
0.119999997 -0.0199444648 0
0.116666667 -0.0199444648 0
0.113333337 -0.0199444648 0
0.109999999 -0.0199444648 0
0.106666669 -0.0199444648 0
0.103333332 -0.0199444648 0
0.100000001 -0.0199444648 0
0.0966666639 -0.0199444648 0
0.0933333337 -0.0199444648 0
0.0900000036 -0.0199444648 0
0.086666666 -0.0199444648 0
0.0833333358 -0.0199444648 0
0.0799999982 -0.0199444648 0
0.0766666681 -0.0199444648 0
0.0733333305 -0.0199444648 0
0.0700000003 -0.0199444648 0
0.0666666701 -0.0199444648 0
0.0633333325 -0.0199444648 0
0.0599999987 -0.0199444648 0
0.0566666685 -0.0199444648 0
0.0533333346 -0.0199444648 0
0.0500000007 -0.0199444648 0
0.0466666669 -0.0199444648 0
0.043333333 -0.0199444648 0
0.141666666 -0.0228312165 0
0.138333336 -0.0228312165 0
0.135000005 -0.0228312165 0
0.13166666 -0.0228312165 0
0.12833333 -0.0228312165 0
0.125 -0.0228312165 0
0.12166667 -0.0228312165 0
0.118333332 -0.0228312165 0
0.115000002 -0.0228312165 0
0.111666664 -0.0228312165 0
0.108333334 -0.0228312165 0
0.104999997 -0.0228312165 0
0.101666667 -0.0228312165 0
0.0983333364 -0.0228312165 0
0.0949999988 -0.0228312165 0
0.0916666687 -0.0228312165 0
0.088333331 -0.0228312165 0
0.0850000009 -0.0228312165 0
0.0816666633 -0.0228312165 0
0.0783333331 -0.0228312165 0
0.075000003 -0.0228312165 0
0.0716666654 -0.0228312165 0
0.0683333352 -0.0228312165 0
0.0649999976 -0.0228312165 0
0.0616666675 -0.0228312165 0
0.0583333336 -0.0228312165 0
0.0549999997 -0.0228312165 0
0.0516666658 -0.0228312165 0
0.0483333319 -0.0228312165 0
0.0450000018 -0.0228312165 0
0.0416666679 -0.0228312165 0
0.140000001 -0.0257179681 0
0.13666667 -0.0257179681 0
0.13333334 -0.0257179681 0
0.129999995 -0.0257179681 0
0.126666665 -0.0257179681 0
0.123333335 -0.0257179681 0
0.119999997 -0.0257179681 0
0.116666667 -0.0257179681 0
0.113333337 -0.0257179681 0
0.109999999 -0.0257179681 0
0.106666669 -0.0257179681 0
0.103333332 -0.0257179681 0
0.100000001 -0.0257179681 0
0.0966666639 -0.0257179681 0
0.0933333337 -0.0257179681 0
0.0900000036 -0.0257179681 0
0.086666666 -0.0257179681 0
0.0833333358 -0.0257179681 0
0.0799999982 -0.0257179681 0
0.0766666681 -0.0257179681 0
0.0733333305 -0.0257179681 0
0.0700000003 -0.0257179681 0
0.0666666701 -0.0257179681 0
0.0633333325 -0.0257179681 0
0.0599999987 -0.0257179681 0
0.0566666685 -0.0257179681 0
0.0533333346 -0.0257179681 0
0.0500000007 -0.0257179681 0
0.0466666669 -0.0257179681 0
0.043333333 -0.0257179681 0
0.0399999991 -0.0257179681 0
0.138333336 -0.0286047198 0
0.135000005 -0.0286047198 0
0.13166666 -0.0286047198 0
0.12833333 -0.0286047198 0
0.125 -0.0286047198 0
0.12166667 -0.0286047198 0
0.118333332 -0.0286047198 0
0.115000002 -0.0286047198 0
0.111666664 -0.0286047198 0
0.108333334 -0.0286047198 0
0.104999997 -0.0286047198 0
0.101666667 -0.0286047198 0
0.0983333364 -0.0286047198 0
0.0949999988 -0.0286047198 0
0.0916666687 -0.0286047198 0
0.088333331 -0.0286047198 0
0.0850000009 -0.0286047198 0
0.0816666633 -0.0286047198 0
0.0783333331 -0.0286047198 0
0.075000003 -0.0286047198 0
0.0716666654 -0.0286047198 0
0.0683333352 -0.0286047198 0
0.0649999976 -0.0286047198 0
0.0616666675 -0.0286047198 0
0.0583333336 -0.0286047198 0
0.0549999997 -0.0286047198 0
0.0516666658 -0.0286047198 0
0.0483333319 -0.0286047198 0
0.0450000018 -0.0286047198 0
0.0416666679 -0.0286047198 0
0.038333334 -0.0286047198 0
0.13666667 -0.0314914696 0
0.13333334 -0.0314914696 0
0.129999995 -0.0314914696 0
0.126666665 -0.0314914696 0
0.123333335 -0.0314914696 0
0.119999997 -0.0314914696 0
0.116666667 -0.0314914696 0
0.113333337 -0.0314914696 0
0.109999999 -0.0314914696 0
0.106666669 -0.0314914696 0
0.103333332 -0.0314914696 0
0.100000001 -0.0314914696 0
0.0966666639 -0.0314914696 0
0.0933333337 -0.0314914696 0
0.0900000036 -0.0314914696 0
0.086666666 -0.0314914696 0
0.0833333358 -0.0314914696 0
0.0799999982 -0.0314914696 0
0.0766666681 -0.0314914696 0
0.0733333305 -0.0314914696 0
0.0700000003 -0.0314914696 0
0.0666666701 -0.0314914696 0
0.0633333325 -0.0314914696 0
0.0599999987 -0.0314914696 0
0.0566666685 -0.0314914696 0
0.0533333346 -0.0314914696 0
0.0500000007 -0.0314914696 0
0.0466666669 -0.0314914696 0
0.043333333 -0.0314914696 0
0.0399999991 -0.0314914696 0
0.0366666652 -0.0314914696 0
0.135000005 -0.0343782231 0
0.13166666 -0.0343782231 0
0.12833333 -0.0343782231 0
0.125 -0.0343782231 0
0.12166667 -0.0343782231 0
0.118333332 -0.0343782231 0
0.115000002 -0.0343782231 0
0.111666664 -0.0343782231 0
0.108333334 -0.0343782231 0
0.104999997 -0.0343782231 0
0.101666667 -0.0343782231 0
0.0983333364 -0.0343782231 0
0.0949999988 -0.0343782231 0
0.0916666687 -0.0343782231 0
0.088333331 -0.0343782231 0
0.0850000009 -0.0343782231 0
0.0816666633 -0.0343782231 0
0.0783333331 -0.0343782231 0
0.075000003 -0.0343782231 0
0.0716666654 -0.0343782231 0
0.0683333352 -0.0343782231 0
0.0649999976 -0.0343782231 0
0.0616666675 -0.0343782231 0
0.0583333336 -0.0343782231 0
0.0549999997 -0.0343782231 0
0.0516666658 -0.0343782231 0
0.0483333319 -0.0343782231 0
0.0450000018 -0.0343782231 0
0.0416666679 -0.0343782231 0
0.038333334 -0.0343782231 0
0.0350000001 -0.0343782231 0
0.13333334 -0.0372649729 0
0.129999995 -0.0372649729 0
0.126666665 -0.0372649729 0
0.123333335 -0.0372649729 0
0.119999997 -0.0372649729 0
0.116666667 -0.0372649729 0
0.113333337 -0.0372649729 0
0.109999999 -0.0372649729 0
0.106666669 -0.0372649729 0
0.103333332 -0.0372649729 0
0.100000001 -0.0372649729 0
0.0966666639 -0.0372649729 0
0.0933333337 -0.0372649729 0
0.0900000036 -0.0372649729 0
0.086666666 -0.0372649729 0
0.0833333358 -0.0372649729 0
0.0799999982 -0.0372649729 0
0.0766666681 -0.0372649729 0
0.0733333305 -0.0372649729 0
0.0700000003 -0.0372649729 0
0.0666666701 -0.0372649729 0
0.0633333325 -0.0372649729 0
0.0599999987 -0.0372649729 0
0.0566666685 -0.0372649729 0
0.0533333346 -0.0372649729 0
0.0500000007 -0.0372649729 0
0.0466666669 -0.0372649729 0
0.043333333 -0.0372649729 0
0.0399999991 -0.0372649729 0
0.0366666652 -0.0372649729 0
0.0333333351 -0.0372649729 0
0.13166666 -0.0401517227 0
0.12833333 -0.0401517227 0
0.125 -0.0401517227 0
0.12166667 -0.0401517227 0
0.118333332 -0.0401517227 0
0.115000002 -0.0401517227 0
0.111666664 -0.0401517227 0
[...]
POINT_DATA 961
SCALARS Temp float 1
LOOKUP_TABLE default
349.73099841680727
299.9135027993066
261.2780931323237
234.02614311366287
216.1590534144052
205.23416335532437
198.98096698529378
195.61592764114062
193.9052874615721
193.07976050109679
192.69976698242297
192.5321831257196
192.46108043632097
192.43195170885122
192.42039358418592
192.41594123517743
192.41429271429666
192.4137754088835
192.41391490365763
192.4151046552197
192.41935181351113
192.43303440019042
192.47444742831405
192.59205787508375
192.90359123444023
193.66859270877325
195.40002674745753
198.99447503032206
205.81730238386288
217.65478783242665
236.80221564130449
299.91354574708
253.0450595696085
218.80330756580804
195.40716508331542
180.5044114138147
171.6308086609824
166.6735567838174
164.06378026684447
162.76288812640084
162.14597250600212
161.86637071200204
161.74474210082525
161.69376401936427
161.6731063663673
161.664989419095
161.66190053700515
161.66079685974657
161.66057181794386
161.66112461222983
161.6634876686603
161.67137180788663
161.6958494019082
161.7672967419932
161.96247446908438
162.45858810662386
163.62517933608996
166.14966347562515
171.1563452326642
180.2337212881774
195.28266796432266
217.65480695062007
261.27805656675963
218.80329298944116
188.31912756038673
167.84119995015237
154.96567431429165
147.3742170681643
143.16345010307964
140.9574572604751
139.86116533850478
139.3421032035972
139.10697101047845
139.0046597430486
138.96174425246122
138.94433510587982
138.93748981352482
138.93489316886544
138.9340141887926
138.93402400946223
138.9351732971686
138.9393810589094
138.952819782072
138.99303190931923
139.10598265819633
139.40234076623685
140.1246828128181
141.75169198605488
145.1228660311348
151.52575130611652
162.64604592710504
180.2337117669601
205.8173103485471
234.02609991844997
195.40714628285536
167.8412042658848
149.37684043382058
137.77192207556564
130.918682289728
127.10593072042761
125.10069805494946
124.09985010619357
123.62385349778212
123.40727647221647
123.31264404910124
123.27279446728087
123.25657171483262
123.25017876721515
123.24776824675307
123.2470279455476
123.24732726425331
123.24935789145127
123.25624473597082
123.277384013747
123.33827599720888
123.50269592477673
123.91691767344932
124.88576524250236
126.9801872854713
131.1490506095051
138.7675357371557
151.52576418267333
171.1563575734023
198.99446686645655
216.15902047986557
180.50439830783722
154.96566969232268
137.77196472473167
126.90163256489922
120.44265582427462
116.82772446673138
114.91594116847459
113.9569500155358
113.4988383700802
113.28959517642414
113.1978633648864
113.15912568581388
113.14332007476968
113.13708631816785
113.1347638582472
113.13416311336186
113.13486290439367
113.1381138160173
113.14854911750189
113.17935721857774
113.2647357129545
113.48639864114656
114.023263810002
115.23125434733504
117.74724703060201
122.58386715195056
131.14904522685447
145.12286247771755
166.14966098638058
195.40003316857957
205.2341336173176
171.63083236278788
147.37424818084543
130.91865803727913
120.44264700511057
114.18036553084198
110.65772888355906
108.78695371533654
107.8453300028978
107.39426868684126
107.18778646623758
107.09710121387619
107.05875005431264
107.04308747667183
107.03691769616006
107.0346639690528
107.03423723392845
107.03546543784701
107.0402654794813
107.05497133989701
107.09675564615141
107.2082478324671
107.48704240862023
108.13810159702403
109.55334479055392
112.40911102628567
117.74724542993663
126.98018832514909
141.75169866740808
163.62516027372686
193.66858477907272
198.98097013306395
166.67357237908854
143.16348496431505
127.10590207384325
116.82771484891147
110.65772702108512
107.1757854280238
105.32209615588589
104.38733606405152
103.93893091573379
103.73344406835778
103.64312170181624
103.60490137018209
103.58928923023541
103.58315557968184
103.58097638352403
103.58076880514254
103.58264162905851
103.58923546108434
103.60860724313744
103.66165703245085
103.79824333797043
104.1282906583565
104.8747857890375
106.45126775544509
109.55334278032105
115.23124954659467
124.88575773867417
140.12467987959027
162.45858546958246
192.90360039310278
195.6159393043849
164.06380120360697
140.95741029370132
125.10067431185097
114.91593851157654
108.78695885311399
105.3220951217687
103.47520306605549
102.5430413597076
102.09559955699513
101.89045824109827
101.80025788661293
101.76208159091821
101.74649184090352
101.74039038371674
101.73829854971605
101.7383480377883
101.74094105262093
101.74942632705421
101.77342262082
101.83693282757622
101.99528552141355
102.3667786563596
103.18515362238143
104.87478494529117
108.1381005502889
114.0232644312203
123.91691834960072
139.40232844934496
161.9624561757621
192.59204821604953
193.90529116999957
162.76291711811186
139.86112207402715
124.099834112747
113.95695058330645
107.84532529473279
104.38733549414785
102.54304375361085
101.61183179023764
101.16472709877489
100.95970229796843
100.86954234236664
100.83138210664374
100.8158070784802
100.80973990086285
100.80774691938093
100.80807418051059
100.81140239703812
100.82170379919583
100.84986160720338
100.92217122005985
101.0976068475136
101.49941363131484
102.36677937524962
104.12829052271424
107.48704160630673
113.48639766306374
123.50269237408163
139.10598602123298
161.76730262090035
192.47446572574324
193.07978997137064
162.1459095695255
139.3420831423027
123.62385130714802
113.4988479520639
107.39426828887711
103.93893352260622
102.09559933442851
101.16472684378012
100.71773608850218
100.51275037746485
100.42260412617023
100.38445186394829
100.36889044372575
100.36286012928346
100.36097062813378
100.3615731329733
100.36558681565002
100.37747638476276
100.40903890178856
100.48807017169015
100.67567460390006
101.09760642934847
101.99528529562143
103.79824331664587
107.20824768118543
113.2647359326322
123.33826279191705
138.99301889049374
161.69583341
192.43302529006417
192.69982291156077
161.86632324704357
139.10696202620323
123.40728125862312
113.28958972090327
107.18778773638772
103.73344783650147
101.89045829867364
100.95970278540624
100.51275035772399
100.30777775402527
100.21763708048614
100.17949098430257
100.16394348944792
100.15795090257646
100.15616133011015
100.15701381536405
100.16161164445298
100.17476805682463
100.20886809919769
100.29257426709165
100.4880704498534
100.92217135644965
101.83693240224171
103.66165625476096
107.09675476427316
113.17935486574683
123.27738275331197
138.95282412847092
161.67138009752765
192.41933865299072
192.53212701520138
161.74471362917382
139.00466003056275
123.31265544566455
113.19785872123593
107.0971035378692
103.64312001268927
101.80025820949393
100.86954149210963
100.42260414140273
100.21763724558109
100.12750070235883
100.08936107735892
100.07382808151787
100.06787172320277
100.06617127147082
100.06723214549781
100.07228551714296
100.08636541869599
100.12219275885533
100.20886828638851
100.40903906514356
100.84986143273106
101.77342341520095
103.60860873268417
107.05497489022609
113.14854597751713
123.25624028283977
138.93938193410483
161.66348890612082
192.41511842471743
192.46105728436447
161.69376271296804
138.96176172670832
123.2727862958393
113.1591275352833
107.05875710716666
103.60490095043544
101.7620830678256
100.83138164623134
100.38445207393164
100.1794908862422
100.08936102719137
100.0512303028392
100.03571317649485
100.02979029167902
100.02816398188828
100.02938500975262
100.03476444894369
100.04946115932906
100.08636530946434
100.1747680150173
100.37747661712187
100.82170315166172
101.74942604643445
103.58923484020286
107.04026416947283
113.13811267166511
123.24935661193253
138.93517893230674
161.661102624456
192.41391807664155
192.43193324666152
161.6731076002631
138.94435671138595
123.25656331667975
113.14332248084416
107.04308370833004
103.58928932735829
101.74649079471048
100.81580680159269
100.3688907832217
100.16394335550021
100.07382806672595
100.03571316636517
100.02021625270676
100.01432528187722
100.01275823440575
100.01409403503096
100.01968882545334
100.03476443444002
100.07228554471055
100.16161161695464
100.36558695676139
100.81140233905509
101.74094184953776
103.58264334132753
107.03546368383827
113.13486016870004
123.24732349504536
138.93402463073994
161.66057548048806
192.41377503226596
192.42039418128627
161.66500841967118
138.9374785352737
123.2501789940692
113.13709632085364
107.03691653559916
103.5831583228718
101.74039005304579
100.80973986616628
100.36286005848797
100.15795089068631
100.0678717579807
100.02979028174106
100.01432528954732
100.00846963005262
100.00695145447756
100.00836634990095
100.01409402762417
100.02938498653079
100.06723210470038
100.15701382475837
100.36157303212445
100.80807358829387
101.7383477549192
103.58076803295889
107.03423668705553
113.13416256017986
123.24702763630195
138.93400089096366
161.66079336823114
192.41428516334759
192.41594135542917
161.66192119998254
138.9348813726065
123.24776997256032
113.13475664994932
107.03466358212516
103.58097407899864
101.73829859654147
100.80774721880744
100.36097053019746
100.15616134444636
100.06617118613183
100.02816398273592
100.01275822181927
100.00695145444332
100.00548018066654
100.00695145729065
100.01275822616986
100.02816400849456
100.06617122408439
100.15616129105
100.36097079523857
100.80774690324849
101.73829946310636
103.5809754043272
107.03466241138992
113.13476235113373
123.24776477424152
138.93489760924263
161.66189174043177
192.41594404939252
192.4143121300895
161.66077356418688
138.93401933154735
123.24704216124448
113.13416056492751
107.0342416022311
103.58076808739783
101.73834873709123
100.80807358336006
100.3615732927941
100.15701397710465
100.06723209834469
100.02938504008216
100.01409403038002
100.00836635258933
100.0069514595634
100.0084696348301
100.01432527413276
100.02979029024242
100.06787169555379
100.15795077401167
100.36286004790915
100.80973935540224
101.7403899595612
103.58315547204805
107.03691752519683
113.13708671605012
123.2501654390448
138.93748737744474
161.66497431630614
192.42038546594446
192.41380618453135
161.6605542718217
138.93403284322872
123.24731402578166
113.13486194207586
107.03546099598174
103.58264154402963
101.74094241356529
100.81140175493249
100.36558706675963
100.16161152816254
100.07228548455055
100.03476442364392
100.0196888182072
100.01409404015862
100.01275823657691
100.01432528358832
100.02021626303099
100.03571318112573
100.07382803995357
100.16394346687622
100.3688906120013
100.81580718535244
101.7464913716263
103.58928847826648
107.04308643732558
113.14331784922659
123.25657089785325
138.94432775381577
161.6730979526271
192.4319526043849
192.4138829946415
161.6611150704971
138.93518853038756
123.2493449404555
113.13811552262325
107.04026109239952
103.58923503634676
101.74942515949837
100.82170329329226
100.37747676038805
100.17476791196901
100.08636539424349
100.04946114536187
100.0347644409678
100.02938500856997
100.02816398076969
100.02979028719096
100.03571318595776
100.0512302877898
100.08936100908299
100.17949095427454
100.38445199949312
100.83138194725255
101.76208225550108
103.60490275654993
107.05875350636492
113.15912224605458
123.27279631081008
138.9617438440576
161.6937636927464
192.4610898949275
192.4150978978381
161.6634996238986
138.9393659784925
123.256242216342
113.14854081489685
107.054971459669
103.60860975171916
101.77342224947374
100.849861675907
100.40903888101988
100.20886815754439
100.1221927341696
100.08636539948436
100.07228553143533
100.06723215365535
100.06617127263533
100.06787172662979
100.07382808645225
100.08936106317228
100.12750074672263
100.21763715655557
100.42260429507749
100.86954169044743
101.80025758530253
103.6431210478159
107.09709994928764
113.1978621537326
123.31263423790547
139.0046525408728
161.74473256205144
192.53218335975407
192.41934729421607
161.67138882299383
138.9528045460828
123.27738629603479
113.1793493463911
107.09675512232936
103.66165456150675
101.8369327277958
100.92217167902525
100.48807023712195
100.29257446449397
100.20886808194352
100.17476804138275
100.16161163886706
100.15701380522472
100.15616133165146
100.15795091685852
100.16394347838143
100.17949098121258
100.21763710727541
100.30777770582841
100.51275046755475
100.95970229714688
101.89045907574382
103.73344553868723
107.18778438553426
113.28959602430808
123.40727162392604
139.10697058706987
161.86637062815282
192.69976373783288
192.43302956431816
161.69580635608668
138.99302081526196
123.33825425923871
113.26473021232498
107.20824960691657
103.7982412147084
101.99528583129249
101.09760608662278
100.6756743508057
100.488070118322
100.40903885004354
100.37747642031937
100.36558685788111
100.36157313940927
100.36097062811973
100.36286012860982
100.36889043282004
100.38445188264107
100.42260408580121
100.51275045055576
100.71773614525536
101.16472649806592
102.09559982325854
103.9389316330461
107.39427103893101
113.49883686744845
123.62385245752274
139.3421108027733
162.1459830679525
193.07977749009797
192.474492270515
161.76729255796147
139.10600407949244
123.50269244238584
113.4864040910749
107.48704214967727
104.12829344989034
102.36678156680405
101.49941435609774
101.09760823676586
100.92217211856592
100.8498624373331
100.82170461998332
100.81140318654667
100.8080750243145
100.80774780061022
100.80974070887287
100.81580793019062
100.83138294608729
100.86954310908959
100.95970310376177
101.16472751543782
101.611832635262
102.5430426888111
104.38733350804553
107.8453283845731
113.95694406728656
124.09983996275962
139.86115704340497
162.76286138678338
193.90527010891594
192.59204090500273
161.962479482337
139.4023295577923
123.91691883146258
114.02327395170623
108.13810117215465
104.87478895550906
103.18515533864202
102.36678017010212
101.99528722341894
101.83693443389026
101.77342442825453
101.7494282106622
101.74094279682281
101.73834974581771
101.73830024660487
101.74039207764766
101.74649356091157
101.7620832838529
101.80025965571168
101.89045987529877
102.09560096975608
102.54304304425298
103.47520327873902
105.32209763180185
108.78695292804878
114.91593939929187
125.10069147257845
140.95745502938252
164.06377384772256
195.61592464160273
192.90358409294436
162.4586038267537
140.1246752016245
124.88576484355013
115.23124857418766
109.55334689666178
106.45127125392244
104.87478691230308
104.12829322470293
103.79824517714525
103.66165867880788
103.6086088372162
103.58923694039231
103.58264330217375
103.5807706038627
103.5809779614226
103.58315732326098
103.58929091934088
103.60490298011233
103.643123399176
103.73344562618932
103.9389327425382
104.38733707886904
105.32209733305169
107.17578997172461
110.65772713043414
116.82772386763448
127.1059310716722
143.1634466559556
166.67355324569996
198.98097215301073
193.6685922351905
163.62514513282818
141.75168759302952
126.98019444563079
117.74724055447714
112.40911316490512
109.55334408541509
108.13810098166135
107.48704226006126
107.20824752705805
107.09675588807632
107.05497190263796
107.04026565623471
107.03546549579703
107.0342372413829
107.03466402177803
107.0369177912187
107.0430875879459
107.05875034665655
107.09710123782797
107.18778658732303
107.39426910644636
107.84532986731438
108.78695530446288
110.65772666057565
114.18036840598225
120.44266125634567
130.91869069323022
147.37422764159882
171.63081460656238
205.23413677342896
195.40003222710547
166.14963647104014
145.122858431468
131.1490321205042
122.58386364409215
117.74724378707658
115.23124779311696
114.0232599997256
113.48639400786158
113.26473066101167
113.17935200038134
113.14854355467884
113.13810876672487
113.13485816539432
113.13415785906284
113.13475902584098
113.13708132999697
113.14331493525138
113.15912069814831
113.19785837666218
113.28959030494589
113.49883306108254
113.95694555919974
114.91593856607759
116.82771960231115
120.44265694973551
126.90164615893029
137.77193010114772
154.96564431647644
180.50438280180416
216.15902529567194
198.99447686013875
171.1563688285826
151.52579506464858
138.76754909622335
131.14907190645414
126.98020344276004
124.88578094905782
123.91693368126543
123.50271142871233
123.33829257415303
123.27740129139549
123.25626121439899
123.24937407685574
123.24734330331768
123.24704419136313
123.247784518632
123.25019509284607
123.25658838203792
123.2728105363523
123.31266040369871
123.40729297747608
123.6238694345534
124.09986656321882
125.10071192157078
127.10594653766343
130.9187028558636
137.77194972649707
149.37682239405433
167.84117648440753
195.40712012952204
234.02610474585927
205.8173195777092
180.23374294320308
162.64606076171057
151.52577551358604
145.12288884621063
141.75170915629175
140.12470336456016
139.40236027872749
139.10600145875657
138.99305034765527
138.95283740720575
138.9393996019595
138.93519239317314
138.93404229663466
138.93403323051905
138.93491189534865
138.93750828206
138.94435372194448
138.9617629706767
139.00467836478927
139.10698906957703
139.34212237810414
139.8611847474789
140.957474046898
143.16346918585714
147.37424027989903
154.9656577597569
167.8411809739392
188.31910158564767
218.80326730399878
261.2780585527885
217.65480886271598
195.28269129052336
180.2337245485123
171.156358578573
166.14967112742787
163.62518670638033
162.45859594777
161.96248169983065
161.7673058652308
161.69585936014727
161.67138045831138
161.66349593176824
161.66113264130445
161.66058040686084
161.66080534233578
161.66190911281035
161.66499845129152
161.67311446511388
161.69377268531227
161.74475084115136
161.86637901385612
162.1459809385336
162.76289525872366
164.06378898048445
166.67356805749614
171.63082368506747
180.5043891099897
195.4071303862576
218.8032626999829
253.04501446845993
299.91344817149553
236.80223191172183
217.65478281852532
205.81730781622403
198.99447954574677
195.40002449927405
193.66859467270208
192.9035916641138
192.59205896531407
192.4744480512059
192.43303264366847
192.4193516933744
192.41510495754142
192.41391495259302
192.41377603210526
192.4142929345633
192.41594146597592
192.42039308763424
192.4319522441387
192.46108044756872
192.53218259273436
192.69976767372563
193.07976143497262
193.90528702467006
195.6159280796718
198.9809678962412
205.2341325627773
216.15902157845588
234.02609878079448
261.2780370113873
299.9134303577256
349.73059372254596
