# vtk DataFile Version 2.0
Unstructured Grid Example
ASCII
DATASET UNSTRUCTURED_GRID

POINTS 961 float
0.150000006 -0.00839745998 0
0.146666661 -0.00839745998 0
0.143333331 -0.00839745998 0
0.140000001 -0.00839745998 0
0.13666667 -0.00839745998 0
0.13333334 -0.00839745998 0
0.129999995 -0.00839745998 0
0.126666665 -0.00839745998 0
0.123333335 -0.00839745998 0
0.119999997 -0.00839745998 0
0.116666667 -0.00839745998 0
0.113333337 -0.00839745998 0
0.109999999 -0.00839745998 0
0.106666669 -0.00839745998 0
0.103333332 -0.00839745998 0
0.100000001 -0.00839745998 0
0.0966666639 -0.00839745998 0
0.0933333337 -0.00839745998 0
0.0900000036 -0.00839745998 0
0.086666666 -0.00839745998 0
0.0833333358 -0.00839745998 0
0.0799999982 -0.00839745998 0
0.0766666681 -0.00839745998 0
0.0733333305 -0.00839745998 0
0.0700000003 -0.00839745998 0
0.0666666701 -0.00839745998 0
0.0633333325 -0.00839745998 0
0.0599999987 -0.00839745998 0
0.0566666685 -0.00839745998 0
0.0533333346 -0.00839745998 0
0.0500000007 -0.00839745998 0
0.148333326 -0.0112842107 0
0.144999996 -0.0112842107 0
0.141666666 -0.0112842107 0
0.138333336 -0.0112842107 0
0.135000005 -0.0112842107 0
0.13166666 -0.0112842107 0
0.12833333 -0.0112842107 0
0.125 -0.0112842107 0
0.12166667 -0.0112842107 0
0.118333332 -0.0112842107 0
0.115000002 -0.0112842107 0
0.111666664 -0.0112842107 0
0.108333334 -0.0112842107 0
0.104999997 -0.0112842107 0
0.101666667 -0.0112842107 0
0.0983333364 -0.0112842107 0
0.0949999988 -0.0112842107 0
0.0916666687 -0.0112842107 0
0.088333331 -0.0112842107 0
0.0850000009 -0.0112842107 0
0.0816666633 -0.0112842107 0
0.0783333331 -0.0112842107 0
0.075000003 -0.0112842107 0
0.0716666654 -0.0112842107 0
0.0683333352 -0.0112842107 0
0.0649999976 -0.0112842107 0
0.0616666675 -0.0112842107 0
0.0583333336 -0.0112842107 0
0.0549999997 -0.0112842107 0
0.0516666658 -0.0112842107 0
0.0483333319 -0.0112842107 0
0.146666661 -0.0141709624 0
0.143333331 -0.0141709624 0
0.140000001 -0.0141709624 0
0.13666667 -0.0141709624 0
0.13333334 -0.0141709624 0
0.129999995 -0.0141709624 0
0.126666665 -0.0141709624 0
0.123333335 -0.0141709624 0
0.119999997 -0.0141709624 0
0.116666667 -0.0141709624 0
0.113333337 -0.0141709624 0
0.109999999 -0.0141709624 0
0.106666669 -0.0141709624 0
0.103333332 -0.0141709624 0
0.100000001 -0.0141709624 0
0.0966666639 -0.0141709624 0
0.0933333337 -0.0141709624 0
0.0900000036 -0.0141709624 0
0.086666666 -0.0141709624 0
0.0833333358 -0.0141709624 0
0.0799999982 -0.0141709624 0
0.0766666681 -0.0141709624 0
0.0733333305 -0.0141709624 0
0.0700000003 -0.0141709624 0
0.0666666701 -0.0141709624 0
0.0633333325 -0.0141709624 0
0.0599999987 -0.0141709624 0
0.0566666685 -0.0141709624 0
0.0533333346 -0.0141709624 0
0.0500000007 -0.0141709624 0
0.0466666669 -0.0141709624 0
0.144999996 -0.0170577131 0
0.141666666 -0.0170577131 0
0.138333336 -0.0170577131 0
0.135000005 -0.0170577131 0
0.13166666 -0.0170577131 0
0.12833333 -0.0170577131 0
0.125 -0.0170577131 0
0.12166667 -0.0170577131 0
0.118333332 -0.0170577131 0
0.115000002 -0.0170577131 0
0.111666664 -0.0170577131 0
0.108333334 -0.0170577131 0
0.104999997 -0.0170577131 0
0.101666667 -0.0170577131 0
0.0983333364 -0.0170577131 0
0.0949999988 -0.0170577131 0
0.0916666687 -0.0170577131 0
0.088333331 -0.0170577131 0
0.0850000009 -0.0170577131 0
0.0816666633 -0.0170577131 0
0.0783333331 -0.0170577131 0
0.075000003 -0.0170577131 0
0.0716666654 -0.0170577131 0
0.0683333352 -0.0170577131 0
0.0649999976 -0.0170577131 0
0.0616666675 -0.0170577131 0
0.0583333336 -0.0170577131 0
0.0549999997 -0.0170577131 0
0.0516666658 -0.0170577131 0
0.0483333319 -0.0170577131 0
0.0450000018 -0.0170577131 0
0.143333331 -0.0199444648 0
0.140000001 -0.0199444648 0
0.13666667 -0.0199444648 0
0.13333334 -0.0199444648 0
0.129999995 -0.0199444648 0
0.126666665 -0.0199444648 0
0.123333335 -0.0199444648 0
0.119999997 -0.0199444648 0
0.116666667 -0.0199444648 0
0.113333337 -0.0199444648 0
0.109999999 -0.0199444648 0
0.106666669 -0.0199444648 0
0.103333332 -0.0199444648 0
0.100000001 -0.0199444648 0
0.0966666639 -0.0199444648 0
0.0933333337 -0.0199444648 0
0.0900000036 -0.0199444648 0
0.086666666 -0.0199444648 0
0.0833333358 -0.0199444648 0
0.0799999982 -0.0199444648 0
0.0766666681 -0.0199444648 0
0.0733333305 -0.0199444648 0
0.0700000003 -0.0199444648 0
0.0666666701 -0.0199444648 0
0.0633333325 -0.0199444648 0
0.0599999987 -0.0199444648 0
0.0566666685 -0.0199444648 0
0.0533333346 -0.0199444648 0
0.0500000007 -0.0199444648 0
0.0466666669 -0.0199444648 0
0.043333333 -0.0199444648 0
0.141666666 -0.0228312165 0
0.138333336 -0.0228312165 0
0.135000005 -0.0228312165 0
0.13166666 -0.0228312165 0
0.12833333 -0.0228312165 0
0.125 -0.0228312165 0
0.12166667 -0.0228312165 0
0.118333332 -0.0228312165 0
0.115000002 -0.0228312165 0
0.111666664 -0.0228312165 0
0.108333334 -0.0228312165 0
0.104999997 -0.0228312165 0
0.101666667 -0.0228312165 0
0.0983333364 -0.0228312165 0
0.0949999988 -0.0228312165 0
0.0916666687 -0.0228312165 0
0.088333331 -0.0228312165 0
0.0850000009 -0.0228312165 0
0.0816666633 -0.0228312165 0
0.0783333331 -0.0228312165 0
0.075000003 -0.0228312165 0
0.0716666654 -0.0228312165 0
0.0683333352 -0.0228312165 0
0.0649999976 -0.0228312165 0
0.0616666675 -0.0228312165 0
0.0583333336 -0.0228312165 0
0.0549999997 -0.0228312165 0
0.0516666658 -0.0228312165 0
0.0483333319 -0.0228312165 0
0.0450000018 -0.0228312165 0
0.0416666679 -0.0228312165 0
0.140000001 -0.0257179681 0
0.13666667 -0.0257179681 0
0.13333334 -0.0257179681 0
0.129999995 -0.0257179681 0
0.126666665 -0.0257179681 0
0.123333335 -0.0257179681 0
0.119999997 -0.0257179681 0
0.116666667 -0.0257179681 0
0.113333337 -0.0257179681 0
0.109999999 -0.0257179681 0
0.106666669 -0.0257179681 0
0.103333332 -0.0257179681 0
0.100000001 -0.0257179681 0
0.0966666639 -0.0257179681 0
0.0933333337 -0.0257179681 0
0.0900000036 -0.0257179681 0
0.086666666 -0.0257179681 0
0.0833333358 -0.0257179681 0
0.0799999982 -0.0257179681 0
0.0766666681 -0.0257179681 0
0.0733333305 -0.0257179681 0
0.0700000003 -0.0257179681 0
0.0666666701 -0.0257179681 0
0.0633333325 -0.0257179681 0
0.0599999987 -0.0257179681 0
0.0566666685 -0.0257179681 0
0.0533333346 -0.0257179681 0
0.0500000007 -0.0257179681 0
0.0466666669 -0.0257179681 0
0.043333333 -0.0257179681 0
0.0399999991 -0.0257179681 0
0.138333336 -0.0286047198 0
0.135000005 -0.0286047198 0
0.13166666 -0.0286047198 0
0.12833333 -0.0286047198 0
0.125 -0.0286047198 0
0.12166667 -0.0286047198 0
0.118333332 -0.0286047198 0
0.115000002 -0.0286047198 0
0.111666664 -0.0286047198 0
0.108333334 -0.0286047198 0
0.104999997 -0.0286047198 0
0.101666667 -0.0286047198 0
0.0983333364 -0.0286047198 0
0.0949999988 -0.0286047198 0
0.0916666687 -0.0286047198 0
0.088333331 -0.0286047198 0
0.0850000009 -0.0286047198 0
0.0816666633 -0.0286047198 0
0.0783333331 -0.0286047198 0
0.075000003 -0.0286047198 0
0.0716666654 -0.0286047198 0
0.0683333352 -0.0286047198 0
0.0649999976 -0.0286047198 0
0.0616666675 -0.0286047198 0
0.0583333336 -0.0286047198 0
0.0549999997 -0.0286047198 0
0.0516666658 -0.0286047198 0
0.0483333319 -0.0286047198 0
0.0450000018 -0.0286047198 0
0.0416666679 -0.0286047198 0
0.038333334 -0.0286047198 0
0.13666667 -0.0314914696 0
0.13333334 -0.0314914696 0
0.129999995 -0.0314914696 0
0.126666665 -0.0314914696 0
0.123333335 -0.0314914696 0
0.119999997 -0.0314914696 0
0.116666667 -0.0314914696 0
0.113333337 -0.0314914696 0
0.109999999 -0.0314914696 0
0.106666669 -0.0314914696 0
0.103333332 -0.0314914696 0
0.100000001 -0.0314914696 0
0.0966666639 -0.0314914696 0
0.0933333337 -0.0314914696 0
0.0900000036 -0.0314914696 0
0.086666666 -0.0314914696 0
0.0833333358 -0.0314914696 0
0.0799999982 -0.0314914696 0
0.0766666681 -0.0314914696 0
0.0733333305 -0.0314914696 0
0.0700000003 -0.0314914696 0
0.0666666701 -0.0314914696 0
0.0633333325 -0.0314914696 0
0.0599999987 -0.0314914696 0
0.0566666685 -0.0314914696 0
0.0533333346 -0.0314914696 0
0.0500000007 -0.0314914696 0
0.0466666669 -0.0314914696 0
0.043333333 -0.0314914696 0
0.0399999991 -0.0314914696 0
0.0366666652 -0.0314914696 0
0.135000005 -0.0343782231 0
0.13166666 -0.0343782231 0
0.12833333 -0.0343782231 0
0.125 -0.0343782231 0
0.12166667 -0.0343782231 0
0.118333332 -0.0343782231 0
0.115000002 -0.0343782231 0
0.111666664 -0.0343782231 0
0.108333334 -0.0343782231 0
0.104999997 -0.0343782231 0
0.101666667 -0.0343782231 0
0.0983333364 -0.0343782231 0
0.0949999988 -0.0343782231 0
0.0916666687 -0.0343782231 0
0.088333331 -0.0343782231 0
0.0850000009 -0.0343782231 0
0.0816666633 -0.0343782231 0
0.0783333331 -0.0343782231 0
0.075000003 -0.0343782231 0
0.0716666654 -0.0343782231 0
0.0683333352 -0.0343782231 0
0.0649999976 -0.0343782231 0
0.0616666675 -0.0343782231 0
0.0583333336 -0.0343782231 0
0.0549999997 -0.0343782231 0
0.0516666658 -0.0343782231 0
0.0483333319 -0.0343782231 0
0.0450000018 -0.0343782231 0
0.0416666679 -0.0343782231 0
0.038333334 -0.0343782231 0
0.0350000001 -0.0343782231 0
0.13333334 -0.0372649729 0
0.129999995 -0.0372649729 0
0.126666665 -0.0372649729 0
0.123333335 -0.0372649729 0
0.119999997 -0.0372649729 0
0.116666667 -0.0372649729 0
0.113333337 -0.0372649729 0
0.109999999 -0.0372649729 0
0.106666669 -0.0372649729 0
0.103333332 -0.0372649729 0
0.100000001 -0.0372649729 0
0.0966666639 -0.0372649729 0
0.0933333337 -0.0372649729 0
0.0900000036 -0.0372649729 0
0.086666666 -0.0372649729 0
0.0833333358 -0.0372649729 0
0.0799999982 -0.0372649729 0
0.0766666681 -0.0372649729 0
0.0733333305 -0.0372649729 0
0.0700000003 -0.0372649729 0
0.0666666701 -0.0372649729 0
0.0633333325 -0.0372649729 0
0.0599999987 -0.0372649729 0
0.0566666685 -0.0372649729 0
0.0533333346 -0.0372649729 0
0.0500000007 -0.0372649729 0
0.0466666669 -0.0372649729 0
0.043333333 -0.0372649729 0
0.0399999991 -0.0372649729 0
0.0366666652 -0.0372649729 0
0.0333333351 -0.0372649729 0
0.13166666 -0.0401517227 0
0.12833333 -0.0401517227 0
0.125 -0.0401517227 0
0.12166667 -0.0401517227 0
0.118333332 -0.0401517227 0
0.115000002 -0.0401517227 0
0.111666664 -0.0401517227 0
[...]
POINT_DATA 961
SCALARS Temp float 1
LOOKUP_TABLE default
372.556852016344
322.54917547234
281.9647335387054
251.94311076726365
231.13072453830998
217.56664038225014
209.23273127384186
204.39060755516653
201.72101054157073
200.31936411907475
199.61600925050203
199.2775061661306
199.1207456503006
199.05068220718263
199.02037980672034
199.00767976448634
199.00256982835208
199.00079271752315
199.00095867603073
199.0037360913799
199.01299358080175
199.03998502500818
199.1136465808872
199.30250566973152
199.755793360929
200.7701643809019
202.8789141002418
206.94021728328545
214.17718412347585
226.1233836078742
244.84849861013475
324.44579952158705
276.160404073175
239.3798841740696
212.9124298988978
194.99851015956838
183.57262129076844
176.68795974879606
172.75722530389277
170.62369017424737
169.51895592941244
168.97140150673926
168.71075851782945
168.5912367708511
168.53828693593388
168.51557332627345
168.50615311200707
168.50248234616348
168.5015403304452
168.50281752920844
168.50835866374445
168.5252163311356
168.57234006136477
168.69609275349305
169.0010131903018
169.70333584361308
171.20989819581345
174.21036663602936
179.7466042543107
189.2024714756394
204.17479778532422
225.60919922526315
285.41844267753993
240.9170559011672
207.58928404610978
184.00065553323213
168.23224091774367
158.26763905732682
152.30320457466274
148.91293315582237
147.0776118533337
146.1284871929475
145.6581601395205
145.43415990258745
145.33133817520095
145.2857287844858
145.2661493044976
145.25805866218266
145.25505399047302
145.25479096919605
145.257582867716
145.26727033335501
145.29525561172835
145.3705543643425
145.56091170801616
146.0120012503259
147.01046355779445
149.06805850236887
153.00549479621637
159.98951247623765
171.45875224710127
188.82258572276962
213.35686848953617
256.4345966892065
215.52818832572314
185.11696252732384
163.69741859628976
149.40971573174485
140.3788338293859
134.96233356305135
131.87350720135007
130.19468595617212
129.32270948705758
128.8886893881084
128.68109039694156
128.58540769397257
128.54281048708262
128.52448262034912
128.51695531394236
128.5143801523965
128.51491392295404
128.5198405944154
128.53530678123735
128.57814980965
128.68921936441967
128.95971126036054
129.57695420202924
130.89260964703308
133.50491630497567
138.32644752662972
146.58688241249055
159.7115660988296
179.12524089793578
205.95036768014373
236.1708203193528
198.27754987631863
170.0938329910779
150.1909782769562
136.85896154615344
128.38839042038782
123.27938038878072
120.34948796664301
118.74852829219789
117.91290444302564
117.495150068
117.29456098634692
117.20180136085862
117.16039674379547
117.14256708509714
117.13533159710938
117.13317272953459
117.13475223067216
117.14251799630576
117.16537493345488
117.22630001392136
117.3786321904854
117.73651097715381
118.52462328509968
120.14726613310485
123.26405986696747
128.8408671605552
138.12983208442702
152.54992343748887
173.45252408566895
201.8092341888885
222.80517051301098
187.2104737321413
160.59327004945575
141.67765841012329
128.92436415349457
120.7708679563294
115.82521996584141
112.97492561189672
111.41086179033873
110.59159316778042
110.18081545117148
109.98309966399691
109.8914928788145
109.85055096091001
109.832942493025
109.82593052547911
109.82426414761649
109.82717092606457
109.83842314873718
109.86992929968524
109.9509217470014
110.14656889504622
110.59101361537046
111.53858114457611
113.43083517644023
116.9647404124353
123.13126623058493
133.18536190594915
148.51210246326437
170.38501092062288
199.67116648376057
214.4740798985947
180.49572972569047
154.901778286631
136.58755374764587
124.16417895986278
116.18052008120767
111.31736224849264
108.50510663543862
106.95777286614324
106.14556609278296
105.73766474298259
105.54108524319616
105.44992144625931
105.40916413208123
105.39168546238238
105.38490280703525
105.38383051561223
105.38830597047763
105.40349391368264
105.44426490110142
105.54559487264123
105.7826940508438
106.30524138540387
107.38833117732703
109.49649792293248
113.34568632231428
119.93426136531869
130.5046416958798
146.4045552372498
168.85079340188736
198.65076605509978
209.55662223779123
176.63425630789718
151.66491726814024
133.69519857037767
121.4496449270649
113.5524139141044
108.72900954847815
105.93415784174987
104.39411025288615
103.58484448851458
103.17808799495367
102.98194545998366
102.89095124389185
102.8502813255955
102.83291163612918
102.82638564635775
102.82598976105487
102.83217667647246
102.85144405772193
102.90130562581503
103.02149045813125
103.29484256417193
103.8817739358532
105.07016270786997
107.33659498267721
111.40407166891826
118.26814338590172
129.15514420005715
145.38450676352696
168.1395908059228
198.1993301656065
206.80120525498972
174.52383567539792
149.912904717944
132.12947740018313
119.974890716887
112.11958116273131
107.3145375870967
104.52734212672632
102.99035799836815
102.18227553801528
101.77596225008745
101.57998494857692
101.48905972203889
101.44844610697427
101.4311861667144
101.4249412419282
101.42526016184368
101.43316809777305
101.45632117426614
101.51436683154755
101.65057384727305
101.9529773344005
102.58855094990318
103.85197035388748
106.22479098838487
110.43057718033799
117.45885341746265
128.52307155600428
144.92556731539236
167.83313298672147
198.01355519291909
205.33141372441526
173.42428106009598
149.00768285973277
131.31983658516674
119.20958853010657
111.37374611179867
106.57683663064955
103.79288321378417
102.25715053798513
101.44952922082004
101.04338525703068
100.84747159089531
100.75658125216239
100.71601601804602
100.69886986614925
100.6929132734106
100.69393089877833
100.70343365158992
100.72999160911483
100.79481017412618
100.94352667837757
101.26731996946172
101.93666343373916
103.24920257264341
105.68766836167848
109.97378151428114
117.09172384748743
128.2468891077529
144.73295366020622
167.7098569620773
197.9420701867849
204.58275657456258
172.87659820235038
148.559857090447
130.91873772835015
118.82913844237862
111.00200221197451
106.208570480737
103.42595018334393
101.89071201550962
101.08326833179902
100.67718929925987
100.48130361001172
100.39043837952798
100.34992045316466
100.33288840894001
100.3272070379233
100.3288565168422
100.33972296406577
100.36903092526876
100.4390121999653
100.5967232760675
100.93501956312907
101.62595426362529
102.96808735997818
105.44379612765691
109.77279593830914
116.93578006105986
128.13398108430775
144.65731973674923
167.66344215222935
197.9162859361097
204.2173418675908
172.61489393732575
148.34708775147368
130.7278238168679
118.6474755419935
110.8240726391245
106.03207076381184
103.2499940178833
101.71494726889162
100.90757737332808
100.5015284527761
100.3056620950807
100.21482164198655
100.17435207519806
100.15742894408753
100.15199269394405
100.15417175094316
100.16611611563836
100.19747530624811
100.27108953855276
100.43477041467237
100.78214193065187
101.48581075302643
102.84439019528646
105.3395872647738
109.6897199274649
116.8736103396264
128.09065578282411
144.62942930369016
167.64701789801134
197.90761557711375
204.04611780882922
172.49458072184174
148.2497285265362
130.64024244549609
118.5639219507216
110.74207268271037
105.95065146389128
103.16879206333475
101.63382923038574
100.8264996994162
100.4204773274415
100.22463732108784
100.1338293774688
100.09341253918436
100.07659066863256
100.07136049540564
100.0739531341719
100.08668774437247
100.11946334819042
100.19544275864408
100.36278795978662
100.71541220607499
101.42602555686754
102.79305478853799
105.29768752181359
109.65746712991943
116.85038234005727
128.07511749377935
144.61986767671965
167.6416642934145
197.90503643335657
203.968747860931
172.4411870721783
148.20669419094082
130.60146297923063
118.52682394369383
110.70560372062391
105.91444971516607
103.13269862802345
101.59780796172191
100.79053345557917
100.38456256850345
100.18877405890629
100.098020224076
100.057669520397
100.04094548993251
100.03588385081454
100.03878132077156
100.05205638879248
100.08574066633443
100.16314866381475
100.33257925839739
100.6880212132301
101.40214821912922
102.77320831636106
105.28208907396723
109.64596824331946
116.84251258196723
128.07018787612537
144.61712366988164
167.64047127961425
197.90488172911427
203.93499561524834
172.418299902991
148.18827350512356
130.58490112334547
118.51098086184321
110.69006473696186
105.8990807596313
103.11745874110417
101.58269311513165
100.77554325972056
100.36969645350808
100.17402283105552
100.08337388767767
100.04312278495055
100.02650696788842
100.02158849391046
100.02470474558572
100.03832924753131
100.0725583889676
100.15076938058127
100.32130389858415
100.67815103871875
101.39393047216065
102.76678050837289
105.27744385374326
109.6429613984432
116.84088269679985
128.06963270688257
144.6173500419687
167.64134847716065
197.90649095762495
203.92075245265133
172.40884645847675
148.18077787293896
130.5782351665027
118.50470219396185
110.68409904510553
105.89338314164986
103.11206391861963
101.57761023040398
100.77077185444362
100.36521762373188
100.16980033266006
100.07936485438366
100.03928608783049
100.02281518275672
100.01803630393991
100.02131609718533
100.03516115004808
100.06970006869734
100.14833416131191
100.3194140731583
100.67691612822979
101.39342257044092
102.7670180635816
105.27838360377332
109.64451627945256
116.84294270511863
128.07210307529314
144.6202382015726
167.64478609991676
197.91115067424977
203.91509024567108
172.40526006899896
148.1782438628403
130.57630089943484
118.50329772942489
110.68329021036858
105.89325428705564
103.112686485632
101.5790059765902
100.77291375419343
100.36802226381022
100.17315410813777
100.08314410093708
100.043376982041
100.02712862606712
100.0225150117902
100.02593561330052
100.0399261644336
100.07463746049044
100.15348382037608
100.32481725743041
100.68260501775826
101.39941119946128
102.7732982215208
105.28493258455032
109.6512985762562
116.84994112271245
128.07934939816857
144.62796471999098
167.6536226133221
197.9227267027207
203.91337147460771
172.40478992423732
148.1787329045407
130.57778915679947
118.5060904465963
110.68760480581997
105.8993350085506
103.12063062487807
101.5887845106694
100.78436707812736
100.38089020227606
100.18713235790376
100.09793141687142
100.05871629772194
100.04282438263968
100.03843546492601
100.04200357431458
100.05610512849076
100.09091724067495
100.1698683706654
100.34131508206585
100.69922176163506
101.41614673463104
102.79014539966761
105.30188713047147
109.6683733305122
116.86720538996963
128.09704590747725
144.6466825377134
167.67497003401405
197.95047303585505
203.9143193711927
172.4074146448013
148.18335153483335
130.58502150387255
118.51663810566619
110.70206664540818
105.91809265020734
103.14374124209034
101.61598172472647
100.8150986966172
100.41445209375799
100.22279434743426
100.13503974603032
100.09675240686563
100.08141788256937
100.0773467689001
100.08109209682245
100.09529665489508
100.13017732647148
100.20918327722536
100.38068031615094
100.73863577245774
101.45560919024328
102.82966355740609
105.34148404522021
109.70812845056427
116.90733710295812
128.13817041005228
144.69032507586508
167.72479507370699
198.01485172361654
203.9197263556624
172.4165444875259
148.1975959706268
130.60612286179835
118.54606506681544
110.74098162642687
105.96691433610029
103.20211461599887
101.68284888680577
100.88893198262875
100.49356879791252
100.30561794604492
100.22027725926327
100.1834511728793
100.16894205655215
100.16530872554382
100.16927498761001
100.18358895312485
100.21852631260725
100.29756623744095
100.46908858983423
100.8270683715865
101.54407276442177
102.91818555612547
105.43014562964933
109.79715308480135
116.99732535193074
128.23058481942297
144.78875661918568
167.83741643598978
198.15944495094126
203.9358175038747
172.4423205034616
148.23664154929577
130.6620727309421
118.62187223932972
110.83827682116652
106.0855820433473
103.340350128889
101.8375562848696
101.05642708488938
100.67023467952754
100.4883701978113
100.4067756498073
100.37209228494638
100.3587255194983
100.3556620689115
100.35989621853892
100.37433065844583
100.40932184299912
100.48838832326433
100.6599293766892
101.01793387493018
101.73499260314291
103.10924247820836
105.62156466307306
109.989512683846
117.1920918531561
128.43126180256633
145.00337794189682
168.08349720709185
198.47306701228857
203.97942293225452
172.5102470226834
148.33693456197688
130.80176556823247
118.80583136006078
111.06776062591713
106.35803105791044
103.65003004277916
102.17689863012404
101.41755488403345
101.04613308824531
100.87353745624043
100.79733483773335
100.76556648550262
100.75366854203251
100.75129720942108
100.75583809833071
100.7704018360022
100.80544698217788
100.88454039029371
101.05610797855277
101.41416627188168
102.13136400939051
103.5059814274483
106.0192579847424
110.38962414217332
117.59808730303274
128.8511145876384
145.4544326173942
168.6015809786293
199.12787136793415
204.09074205276303
172.6795285799697
148.57992299509542
131.13071994850648
119.22656224718284
111.5780907433924
106.94846267365897
104.3061068100606
102.88244078441727
102.15744488422507
101.80804260392989
101.64850506464985
101.57948123672632
101.55138220051893
101.5412335840843
101.53964302457267
101.54451197640996
101.55920782453119
101.5943088282593
101.67343943358665
101.8450669716419
102.2032731862181
102.92085578315118
104.29646204658867
106.81220738997045
111.18855655350048
118.41098341425399
129.69530455447057
146.365665540569
169.64944626368413
200.4394590769564
204.35838744673796
173.07626317992523
149.13352731804235
131.85865902583492
120.13105528350168
112.64576756714546
108.15406167991877
105.61859764680207
104.27111831966371
103.59613963246875
103.27704233116951
103.13448387965992
103.07428222647209
103.05044873414437
103.04222594104287
103.04145155221106
103.04664829636434
103.06147422039882
103.09664037325513
103.17584437301191
103.34763356708392
103.70625165278636
104.42488020208705
105.80307319214815
108.32501953811902
112.71569295525028
119.9699791397711
131.32212383279602
148.1301611381836
171.67914421200518
202.9514824422212
204.96381842066205
173.9490792522488
150.31634302265752
133.36831682259822
121.95402820102464
114.74248835058152
110.46949127425556
108.09439779249978
106.85504154417059
106.24715556624703
105.9664548824763
105.84422033901569
105.79400491594441
105.77474421609126
105.76848111405478
105.76849767722445
105.77400216692398
105.78895941240279
105.82422651469828
105.90361322609833
106.07584962928524
106.43558959176049
107.15696802517756
108.54168760583116
111.07858672959416
115.50219912192253
122.82602469345208
134.31833074681074
151.39492694614324
175.43087666330155
207.5345062354118
206.24633002001903
175.74515841467385
152.67810822171552
136.294259030182
125.39061139383469
118.60050053473228
114.64620501649094
112.49242741992303
111.39411232903416
110.86887679463283
110.63284560002813
110.53296228837316
110.49314497306533
110.47840036046244
110.47397982302552
110.47471189603324
110.48049825692512
110.49561373263913
110.53109548647197
110.61097214182765
110.78442007017112
111.14710795065042
111.87543605764874
113.27595813918838
115.84738316239475
120.34327899832873
127.81155696529001
139.57846382663647
157.14967684138736
182.02611299647685
215.4704702332793
208.7835459806628
179.19291146181314
157.07437088833922
141.5820989985732
131.4393072676317
125.24366795291144
121.71605882167049
119.84242201376084
118.91262543678478
118.48060249921292
118.29217470439042
118.21483947248242
118.18497404837706
118.17434273888081
118.17152763817865
118.1728731755426
118.17894006215516
118.1943255243908
118.23034978919796
118.31153648237608
118.4881502762874
118.85826466461913
119.60339103093384
121.0404114747191
123.68774090361732
128.33420184079264
136.0863447173679
148.36011323454696
166.78548705246686
193.01533516538098
228.46715350523806
213.46075986126377
185.3542330581044
164.68927577414493
150.4786181564721
141.36961973649733
135.94497525744427
132.94053253780012
131.39075024229814
130.64470416982925
130.30868451491853
130.16666306324714
130.11018301484964
130.08907217043355
130.08189959580594
130.08039708543535
130.08227639035562
130.08871289376438
130.10470788072413
130.14214789384553
130.22672607635505
130.4112606680903
130.7992246588967
131.58298858471326
133.10003050970667
135.9053259002257
140.8478166862442
149.1245970620365
162.27435171200727
182.07294866608424
210.3182665942522
248.53284842033642
221.48789582859493
195.59714815450485
176.9473442088058
164.3962242160045
156.5879309642876
152.07810436537113
149.65746197679888
148.44808919651132
147.88438706527998
147.63853273631517
147.53787296697647
147.4990837965341
147.48506914931085
147.48059977016484
147.48013925121722
147.4825779313728
147.48972247707948
147.50724814270478
147.54830403937441
147.64128621505688
147.84469617898782
148.2734043871389
149.14133711357303
150.82408825795721
153.93896043272312
159.4278244156887
168.61148130686155
183.17032818657793
205.00867113637722
235.99768870618857
277.6537943012997
234.3318139715099
211.46214364040262
195.20696923945843
184.70669130947195
178.39312256932539
174.86629059295726
173.03524742479223
172.15026934958942
171.7510495688751
171.58241539258265
171.51548914072876
171.49048291202172
171.48178815825233
171.47933177907703
171.47978260192224
171.48308110578006
171.49188585644484
171.51325165519475
171.5631742939964
171.6759914070064
171.92208528881028
172.4387625061763
173.47958103730738
175.48486159957434
179.16815094079647
185.59865008596844
196.24075226338925
212.898589523408
237.52021084554903
271.84865465181207
317.24867566280165
253.9598328483795
233.81720329590357
220.6539165711588
212.4395560867367
207.66687722653282
205.0901018558191
203.79660862167654
203.1917160720438
202.9274216127013
202.81916265245908
202.77745891878743
202.76236170954897
202.75741412618987
202.75650123897853
202.75806287104584
202.76318465201098
202.77605794041654
202.80673061159436
202.87736907201418
203.03459844763378
203.3719570625033
204.06762142485434
205.441925113924
208.0346078510183
212.69094220131515
220.62888639154224
233.4415922224992
252.98236572279708
281.09232728249845
319.14844226569335
366.2471655142717
