# vtk DataFile Version 2.0
Unstructured Grid Example
ASCII
DATASET UNSTRUCTURED_GRID

POINTS 961 float
0.150000006 -0.00839745998 0
0.146666661 -0.00839745998 0
0.143333331 -0.00839745998 0
0.140000001 -0.00839745998 0
0.13666667 -0.00839745998 0
0.13333334 -0.00839745998 0
0.129999995 -0.00839745998 0
0.126666665 -0.00839745998 0
0.123333335 -0.00839745998 0
0.119999997 -0.00839745998 0
0.116666667 -0.00839745998 0
0.113333337 -0.00839745998 0
0.109999999 -0.00839745998 0
0.106666669 -0.00839745998 0
0.103333332 -0.00839745998 0
0.100000001 -0.00839745998 0
0.0966666639 -0.00839745998 0
0.0933333337 -0.00839745998 0
0.0900000036 -0.00839745998 0
0.086666666 -0.00839745998 0
0.0833333358 -0.00839745998 0
0.0799999982 -0.00839745998 0
0.0766666681 -0.00839745998 0
0.0733333305 -0.00839745998 0
0.0700000003 -0.00839745998 0
0.0666666701 -0.00839745998 0
0.0633333325 -0.00839745998 0
0.0599999987 -0.00839745998 0
0.0566666685 -0.00839745998 0
0.0533333346 -0.00839745998 0
0.0500000007 -0.00839745998 0
0.148333326 -0.0112842107 0
0.144999996 -0.0112842107 0
0.141666666 -0.0112842107 0
0.138333336 -0.0112842107 0
0.135000005 -0.0112842107 0
0.13166666 -0.0112842107 0
0.12833333 -0.0112842107 0
0.125 -0.0112842107 0
0.12166667 -0.0112842107 0
0.118333332 -0.0112842107 0
0.115000002 -0.0112842107 0
0.111666664 -0.0112842107 0
0.108333334 -0.0112842107 0
0.104999997 -0.0112842107 0
0.101666667 -0.0112842107 0
0.0983333364 -0.0112842107 0
0.0949999988 -0.0112842107 0
0.0916666687 -0.0112842107 0
0.088333331 -0.0112842107 0
0.0850000009 -0.0112842107 0
0.0816666633 -0.0112842107 0
0.0783333331 -0.0112842107 0
0.075000003 -0.0112842107 0
0.0716666654 -0.0112842107 0
0.0683333352 -0.0112842107 0
0.0649999976 -0.0112842107 0
0.0616666675 -0.0112842107 0
0.0583333336 -0.0112842107 0
0.0549999997 -0.0112842107 0
0.0516666658 -0.0112842107 0
0.0483333319 -0.0112842107 0
0.146666661 -0.0141709624 0
0.143333331 -0.0141709624 0
0.140000001 -0.0141709624 0
0.13666667 -0.0141709624 0
0.13333334 -0.0141709624 0
0.129999995 -0.0141709624 0
0.126666665 -0.0141709624 0
0.123333335 -0.0141709624 0
0.119999997 -0.0141709624 0
0.116666667 -0.0141709624 0
0.113333337 -0.0141709624 0
0.109999999 -0.0141709624 0
0.106666669 -0.0141709624 0
0.103333332 -0.0141709624 0
0.100000001 -0.0141709624 0
0.0966666639 -0.0141709624 0
0.0933333337 -0.0141709624 0
0.0900000036 -0.0141709624 0
0.086666666 -0.0141709624 0
0.0833333358 -0.0141709624 0
0.0799999982 -0.0141709624 0
0.0766666681 -0.0141709624 0
0.0733333305 -0.0141709624 0
0.0700000003 -0.0141709624 0
0.0666666701 -0.0141709624 0
0.0633333325 -0.0141709624 0
0.0599999987 -0.0141709624 0
0.0566666685 -0.0141709624 0
0.0533333346 -0.0141709624 0
0.0500000007 -0.0141709624 0
0.0466666669 -0.0141709624 0
0.144999996 -0.0170577131 0
0.141666666 -0.0170577131 0
0.138333336 -0.0170577131 0
0.135000005 -0.0170577131 0
0.13166666 -0.0170577131 0
0.12833333 -0.0170577131 0
0.125 -0.0170577131 0
0.12166667 -0.0170577131 0
0.118333332 -0.0170577131 0
0.115000002 -0.0170577131 0
0.111666664 -0.0170577131 0
0.108333334 -0.0170577131 0
0.104999997 -0.0170577131 0
0.101666667 -0.0170577131 0
0.0983333364 -0.0170577131 0
0.0949999988 -0.0170577131 0
0.0916666687 -0.0170577131 0
0.088333331 -0.0170577131 0
0.0850000009 -0.0170577131 0
0.0816666633 -0.0170577131 0
0.0783333331 -0.0170577131 0
0.075000003 -0.0170577131 0
0.0716666654 -0.0170577131 0
0.0683333352 -0.0170577131 0
0.0649999976 -0.0170577131 0
0.0616666675 -0.0170577131 0
0.0583333336 -0.0170577131 0
0.0549999997 -0.0170577131 0
0.0516666658 -0.0170577131 0
0.0483333319 -0.0170577131 0
0.0450000018 -0.0170577131 0
0.143333331 -0.0199444648 0
0.140000001 -0.0199444648 0
0.13666667 -0.0199444648 0
0.13333334 -0.0199444648 0
0.129999995 -0.0199444648 0
0.126666665 -0.0199444648 0
0.123333335 -0.0199444648 0
0.119999997 -0.0199444648 0
0.116666667 -0.0199444648 0
0.113333337 -0.0199444648 0
0.109999999 -0.0199444648 0
0.106666669 -0.0199444648 0
0.103333332 -0.0199444648 0
0.100000001 -0.0199444648 0
0.0966666639 -0.0199444648 0
0.0933333337 -0.0199444648 0
0.0900000036 -0.0199444648 0
0.086666666 -0.0199444648 0
0.0833333358 -0.0199444648 0
0.0799999982 -0.0199444648 0
0.0766666681 -0.0199444648 0
0.0733333305 -0.0199444648 0
0.0700000003 -0.0199444648 0
0.0666666701 -0.0199444648 0
0.0633333325 -0.0199444648 0
0.0599999987 -0.0199444648 0
0.0566666685 -0.0199444648 0
0.0533333346 -0.0199444648 0
0.0500000007 -0.0199444648 0
0.0466666669 -0.0199444648 0
0.043333333 -0.0199444648 0
0.141666666 -0.0228312165 0
0.138333336 -0.0228312165 0
0.135000005 -0.0228312165 0
0.13166666 -0.0228312165 0
0.12833333 -0.0228312165 0
0.125 -0.0228312165 0
0.12166667 -0.0228312165 0
0.118333332 -0.0228312165 0
0.115000002 -0.0228312165 0
0.111666664 -0.0228312165 0
0.108333334 -0.0228312165 0
0.104999997 -0.0228312165 0
0.101666667 -0.0228312165 0
0.0983333364 -0.0228312165 0
0.0949999988 -0.0228312165 0
0.0916666687 -0.0228312165 0
0.088333331 -0.0228312165 0
0.0850000009 -0.0228312165 0
0.0816666633 -0.0228312165 0
0.0783333331 -0.0228312165 0
0.075000003 -0.0228312165 0
0.0716666654 -0.0228312165 0
0.0683333352 -0.0228312165 0
0.0649999976 -0.0228312165 0
0.0616666675 -0.0228312165 0
0.0583333336 -0.0228312165 0
0.0549999997 -0.0228312165 0
0.0516666658 -0.0228312165 0
0.0483333319 -0.0228312165 0
0.0450000018 -0.0228312165 0
0.0416666679 -0.0228312165 0
0.140000001 -0.0257179681 0
0.13666667 -0.0257179681 0
0.13333334 -0.0257179681 0
0.129999995 -0.0257179681 0
0.126666665 -0.0257179681 0
0.123333335 -0.0257179681 0
0.119999997 -0.0257179681 0
0.116666667 -0.0257179681 0
0.113333337 -0.0257179681 0
0.109999999 -0.0257179681 0
0.106666669 -0.0257179681 0
0.103333332 -0.0257179681 0
0.100000001 -0.0257179681 0
0.0966666639 -0.0257179681 0
0.0933333337 -0.0257179681 0
0.0900000036 -0.0257179681 0
0.086666666 -0.0257179681 0
0.0833333358 -0.0257179681 0
0.0799999982 -0.0257179681 0
0.0766666681 -0.0257179681 0
0.0733333305 -0.0257179681 0
0.0700000003 -0.0257179681 0
0.0666666701 -0.0257179681 0
0.0633333325 -0.0257179681 0
0.0599999987 -0.0257179681 0
0.0566666685 -0.0257179681 0
0.0533333346 -0.0257179681 0
0.0500000007 -0.0257179681 0
0.0466666669 -0.0257179681 0
0.043333333 -0.0257179681 0
0.0399999991 -0.0257179681 0
0.138333336 -0.0286047198 0
0.135000005 -0.0286047198 0
0.13166666 -0.0286047198 0
0.12833333 -0.0286047198 0
0.125 -0.0286047198 0
0.12166667 -0.0286047198 0
0.118333332 -0.0286047198 0
0.115000002 -0.0286047198 0
0.111666664 -0.0286047198 0
0.108333334 -0.0286047198 0
0.104999997 -0.0286047198 0
0.101666667 -0.0286047198 0
0.0983333364 -0.0286047198 0
0.0949999988 -0.0286047198 0
0.0916666687 -0.0286047198 0
0.088333331 -0.0286047198 0
0.0850000009 -0.0286047198 0
0.0816666633 -0.0286047198 0
0.0783333331 -0.0286047198 0
0.075000003 -0.0286047198 0
0.0716666654 -0.0286047198 0
0.0683333352 -0.0286047198 0
0.0649999976 -0.0286047198 0
0.0616666675 -0.0286047198 0
0.0583333336 -0.0286047198 0
0.0549999997 -0.0286047198 0
0.0516666658 -0.0286047198 0
0.0483333319 -0.0286047198 0
0.0450000018 -0.0286047198 0
0.0416666679 -0.0286047198 0
0.038333334 -0.0286047198 0
0.13666667 -0.0314914696 0
0.13333334 -0.0314914696 0
0.129999995 -0.0314914696 0
0.126666665 -0.0314914696 0
0.123333335 -0.0314914696 0
0.119999997 -0.0314914696 0
0.116666667 -0.0314914696 0
0.113333337 -0.0314914696 0
0.109999999 -0.0314914696 0
0.106666669 -0.0314914696 0
0.103333332 -0.0314914696 0
0.100000001 -0.0314914696 0
0.0966666639 -0.0314914696 0
0.0933333337 -0.0314914696 0
0.0900000036 -0.0314914696 0
0.086666666 -0.0314914696 0
0.0833333358 -0.0314914696 0
0.0799999982 -0.0314914696 0
0.0766666681 -0.0314914696 0
0.0733333305 -0.0314914696 0
0.0700000003 -0.0314914696 0
0.0666666701 -0.0314914696 0
0.0633333325 -0.0314914696 0
0.0599999987 -0.0314914696 0
0.0566666685 -0.0314914696 0
0.0533333346 -0.0314914696 0
0.0500000007 -0.0314914696 0
0.0466666669 -0.0314914696 0
0.043333333 -0.0314914696 0
0.0399999991 -0.0314914696 0
0.0366666652 -0.0314914696 0
0.135000005 -0.0343782231 0
0.13166666 -0.0343782231 0
0.12833333 -0.0343782231 0
0.125 -0.0343782231 0
0.12166667 -0.0343782231 0
0.118333332 -0.0343782231 0
0.115000002 -0.0343782231 0
0.111666664 -0.0343782231 0
0.108333334 -0.0343782231 0
0.104999997 -0.0343782231 0
0.101666667 -0.0343782231 0
0.0983333364 -0.0343782231 0
0.0949999988 -0.0343782231 0
0.0916666687 -0.0343782231 0
0.088333331 -0.0343782231 0
0.0850000009 -0.0343782231 0
0.0816666633 -0.0343782231 0
0.0783333331 -0.0343782231 0
0.075000003 -0.0343782231 0
0.0716666654 -0.0343782231 0
0.0683333352 -0.0343782231 0
0.0649999976 -0.0343782231 0
0.0616666675 -0.0343782231 0
0.0583333336 -0.0343782231 0
0.0549999997 -0.0343782231 0
0.0516666658 -0.0343782231 0
0.0483333319 -0.0343782231 0
0.0450000018 -0.0343782231 0
0.0416666679 -0.0343782231 0
0.038333334 -0.0343782231 0
0.0350000001 -0.0343782231 0
0.13333334 -0.0372649729 0
0.129999995 -0.0372649729 0
0.126666665 -0.0372649729 0
0.123333335 -0.0372649729 0
0.119999997 -0.0372649729 0
0.116666667 -0.0372649729 0
0.113333337 -0.0372649729 0
0.109999999 -0.0372649729 0
0.106666669 -0.0372649729 0
0.103333332 -0.0372649729 0
0.100000001 -0.0372649729 0
0.0966666639 -0.0372649729 0
0.0933333337 -0.0372649729 0
0.0900000036 -0.0372649729 0
0.086666666 -0.0372649729 0
0.0833333358 -0.0372649729 0
0.0799999982 -0.0372649729 0
0.0766666681 -0.0372649729 0
0.0733333305 -0.0372649729 0
0.0700000003 -0.0372649729 0
0.0666666701 -0.0372649729 0
0.0633333325 -0.0372649729 0
0.0599999987 -0.0372649729 0
0.0566666685 -0.0372649729 0
0.0533333346 -0.0372649729 0
0.0500000007 -0.0372649729 0
0.0466666669 -0.0372649729 0
0.043333333 -0.0372649729 0
0.0399999991 -0.0372649729 0
0.0366666652 -0.0372649729 0
0.0333333351 -0.0372649729 0
0.13166666 -0.0401517227 0
0.12833333 -0.0401517227 0
0.125 -0.0401517227 0
0.12166667 -0.0401517227 0
0.118333332 -0.0401517227 0
0.115000002 -0.0401517227 0
0.111666664 -0.0401517227 0
[...]
POINT_DATA 961
SCALARS Temp float 1
LOOKUP_TABLE default
362.1969685582353
311.99237225929676
271.80407343282104
242.69336915187256
223.03646170721302
210.61555446256685
203.24471407731764
199.12083816634794
196.93628829726507
195.83586283939755
195.306531688525
195.06242337802976
194.95409808266484
194.90769101739744
194.8884422585822
194.88069701589532
194.87769739318358
194.876683188496
194.87677885885086
194.8784077768317
194.88412797703003
194.9018245600169
194.9531299091667
195.09274923851547
195.44769341161353
196.28633512500957
198.11915710824147
201.80998028621474
208.64297364551024
220.27947600650987
238.9781182705058
313.99970776294225
265.7053307497323
229.57323357905156
204.1583328240776
187.42555120443674
177.08750553025723
171.07447942970038
167.7694517518585
166.04582443678882
165.1894156497044
164.78240417346348
164.59668710690795
164.515048182204
164.4803665438378
164.46609103700462
164.46040300578863
164.45826251058526
164.45772473561715
164.4584661161822
164.4618189655317
164.47260417543623
164.50459540904112
164.593734368845
164.82639088519855
165.39253109650846
166.67077134940226
169.3374926146368
174.4622216953899
183.51920623152856
198.25397700619982
219.7427650460086
275.4196738861823
231.16607647510068
198.6268861506197
176.11923734912966
161.47863619146676
152.5106431961891
147.32435036476303
144.48348329217683
143.00432651944502
142.26960506059393
141.92020142992328
141.76056900927094
141.69028381710885
141.66037199880347
141.6480447168209
141.64314391445572
141.64137919962016
141.6412261704663
141.6428840611938
141.64891987414475
141.66737015812464
141.7199876847978
141.86084147166494
142.21353360546343
143.03586177608744
144.81365522680898
148.36482674521977
154.90174721618115
165.97057989805216
183.12772514884728
207.79458195665458
247.33651887973298
206.83632868317528
177.25027199036373
156.86242191258415
143.61255287847214
135.48433679587004
130.76865712508518
128.174600339335
126.81748604995937
126.14006041270966
125.8163475828028
125.66778370601057
125.60209772617631
125.5740403551777
125.56244938280803
125.55786419770642
125.55633688254372
125.55664915667371
125.55964496563197
125.56953292562427
125.59849779758214
125.67793809855858
125.88229941258042
126.37367015399978
127.47351828375602
129.75713651168752
134.1427933662253
141.91714332064063
154.62043268335282
173.82839804693677
200.7961375490901
228.18461181925431
190.74670058004256
163.34594895121816
144.38763115969317
131.9997968888056
124.3537853537218
119.8900503782872
117.41983022482084
116.12039095197866
115.4685751670772
115.15577095673578
115.01168857340375
114.94778621732166
114.92042439563863
114.90910945097242
114.90468132376834
114.90338903258666
114.90433445594184
114.90915929499239
114.92409499306406
114.96612919726132
115.07705566655152
115.35159683319556
115.98678544000781
117.35603368824688
120.09841493861494
125.19086733606088
133.94846909352088
147.90900902276735
168.5721907362404
197.03259999009845
215.916235482065
180.74188746441845
154.8242313383491
136.7604721794436
124.87274711717818
117.48736640387014
113.15115311993455
110.73989976556756
109.46640455092381
108.82551349289417
108.51714320019951
108.37480045004651
108.31156418373673
108.2844574771555
108.27325963370501
108.26895323913558
108.26794788882894
108.26971876698462
108.27683926978746
108.2977936562593
108.35455207515902
108.49889349953823
108.84338192445976
109.61289230161712
111.21760849210432
114.33533429347239
119.97096105398647
129.44532082568458
144.26325228563954
165.8445614491985
195.17631318592592
208.51760861706077
174.87927487322472
149.8932645349096
132.35195734569683
120.73683874913796
113.48463273685137
109.2097250349995
106.82525963837114
105.56293304702663
104.92651653848436
104.61987916710498
104.47818835357472
104.41519468131325
104.38818405927715
104.37705402789796
104.37287628686553
104.37222710088159
104.37499347211808
104.38474937587722
104.41223613146263
104.48405173923919
104.66050974864774
105.06805458138665
105.95100795776818
107.74206217002285
111.13862931738073
117.15440904935306
127.09910109237791
142.44090961319012
164.54327315543875
194.33488717210457
204.30580245538764
171.63253277998982
147.19187736028107
129.9369177423356
118.46209261184346
111.27449071479181
107.0277087571861
104.65489799002083
103.3971920779594
102.76254552642158
102.45656244339612
102.3151095176128
102.25220379468966
102.2252374210521
102.21416603832573
102.21013621009553
102.20990061522089
102.21376958262874
102.22628880997922
102.26023301741581
102.34604936557622
102.55053775108297
103.00967990181822
103.97964912421851
105.90481319697834
109.48993835185519
115.74673490127526
125.969905780138
141.60066021548954
163.97077980422335
193.98295631540367
202.03533518640018
169.92743727029966
145.78624737490694
128.67920114753878
117.27284472998215
110.11510453301851
105.88069695025779
103.51276568057307
102.2569078812048
101.62293833515547
101.31719596335586
101.17582851031564
101.11295685386797
101.08601929959573
101.07500868196686
101.07114431179713
101.071351891066
101.07634105334573
101.09150890145514
101.13127732795512
101.22895545198708
101.4557234674894
101.95332462929466
102.98413689495716
104.99729146863805
108.69837922622023
115.0937976076124
125.46648657193465
141.24206806467666
163.73759457545148
193.84651145645068
200.87230686103825
169.07505721417314
145.0890596390551
128.05444466119863
116.67991438993919
109.53539192180399
105.30620683783692
102.94024256578629
101.68510515665646
101.05138637476513
100.74573180029628
100.60439565397633
100.54154104118503
100.51462907566545
100.50368278092914
100.49999043647374
100.50063513251803
100.50666779605804
100.52415873892188
100.56872946112462
100.67558884624508
100.91853492922944
101.44232969569157
102.51200947373194
104.57785268104453
108.34392741178753
114.81196768788267
125.25785775082387
141.09977810663793
163.64916758923133
193.79713999444397
200.3041101558495
168.66809536791757
144.7582343459068
127.75740517902955
116.39700555700651
109.25812787483524
105.0310726766681
102.66588011644517
101.41101403938647
100.77738738805297
100.47176487749235
100.33044199864901
100.26760001803743
100.2407136508827
100.22983276137838
100.22630590575679
100.22734758675556
100.2342727273242
100.25363204796619
100.30183054900436
100.41519947116238
100.66890633316827
101.20904391335353
102.30145237093957
104.39614861448041
108.19552706125523
114.69839201948695
125.17718381944682
141.0470799301068
163.61784637209584
193.78041310722426
200.03825303715325
168.48177344619825
144.6075305660707
127.6217818370798
116.26742420068682
109.1308545847229
104.90463261620538
102.53974340896407
101.28497679238362
100.65138753257958
100.3457794790874
100.2044659827725
100.14163683784133
100.1147769733998
100.10395888896072
100.10057980278631
100.10195395663878
100.10958116630773
100.13032125891324
100.18103691698005
100.29864470134865
100.558924169916
101.1084207356143
102.21302832720647
104.32222782630559
108.13728770306754
114.65552048906402
125.1479472670432
141.02876489382078
163.60741293629928
193.77513408874358
199.9189021531382
168.39970826545797
144.54141744903308
127.5620975840073
116.21026267587702
109.0746094153745
104.84871009624092
102.48393572398734
101.22921086411561
100.59564146058084
100.2900466117222
100.1487469148333
100.08593511422113
100.05910439056771
100.0483446867918
100.04508945644452
100.04672169198746
100.05485857081409
100.07653868336209
100.12886241503358
100.24901079450001
100.512986153375
101.06741561189602
102.17804930008248
104.29396588005181
108.11583999039989
114.64036278611144
125.13804365200954
141.0228416276786
163.6041943959576
193.77364010337587
199.86721246114482
168.36479897915333
144.51338791784522
127.53674355316394
116.1859112529578
109.0506071662659
104.82485590993375
102.46013577137968
101.2054496035351
100.57190951199682
100.26634264562912
100.12507134854567
100.06228950871218
100.03549585511453
100.02479241529245
100.02163759797938
100.02345782529723
100.03193807043112
100.05420986525793
100.10748231168036
100.2290362060276
100.49492927802041
101.05176111308401
102.16514836956989
104.28394839011266
108.10857104006632
114.63548482564994
125.13505847101084
141.02122230970468
163.60352191655966
193.7735554968109
199.845597839858
168.35045285032345
144.50185670530587
127.52634630751218
116.17592155841677
109.04077947870975
104.81511852934979
102.45046758569217
101.1958511266328
100.56238179228174
100.25688663656999
100.11568181486587
100.05296056977363
100.0262242486468
100.0155833323341
100.01251286823751
100.0144656920031
100.0231634156955
100.04578158669031
100.09957253457782
100.22184665126767
100.48866113232424
101.04657635154976
102.16113083565236
104.28108078818242
108.10674521703311
114.6345155697679
125.13473990592732
141.0213531398087
163.60402202558788
193.77446786892938
199.83683796967543
168.34475721647527
144.49734423376628
127.52231044437156
116.17208951077264
109.03712898398473
104.81161790742651
102.4471457817927
101.19271452840538
100.55943201813743
100.25411353542019
100.11306358938319
100.05047082870739
100.02383722317471
100.0132816961541
100.01029319609451
100.01234321494842
100.02117468669648
100.04398412261786
100.09803950679648
100.22065666879267
100.4878835390435
101.04625459297334
102.16127220800436
104.28165154468986
108.10768471340754
114.63574982433057
125.13620481218294
141.0230561665843
163.60602129108045
193.77719435455643
199.83349365655377
168.3426511444135
144.495872355797
127.52117559904072
116.17125612899494
109.03664885505728
104.81154937601224
102.447540771165
101.19359167147185
100.56077846997059
100.25587747843801
100.11517268709758
100.05284549266096
100.0264040189025
100.01598331693364
100.01309302232467
100.01522577580772
100.02414307721645
100.04705537127569
100.1012385771368
100.22400886482554
100.49140782270545
101.04995792533693
102.16514716873333
104.28568259717862
108.11184713628889
114.64002992442046
125.14061212162594
141.02773046136835
163.61134569810474
193.7842155097924
199.83251355541617
168.34239943342772
144.49617951733163
127.52206818985066
116.17296544942494
109.03931467800523
104.8153515602689
102.45255293608379
101.19980379742124
100.56808985230688
100.26411597900164
100.12413466648758
100.06232907474048
100.0362380550585
100.02603905545836
100.02328500539133
100.02550480899934
100.03448637229847
100.05745675712176
100.11170048449337
100.2345362546004
100.5020035630667
101.06062114124356
102.17587213864597
104.29646516321361
108.12269222866763
114.65097369967674
125.15179913639992
141.03950431618614
163.62473944453154
193.8017569531417
199.83307004377988
168.34399669831413
144.49901894058917
127.52658014286297
116.17965066187786
109.04860861984123
104.82754724631558
102.4677138154468
101.2177607209491
100.58846262238703
100.28641272003286
100.147844710346
100.08699833599164
100.06151099978135
100.05166619663622
100.04910841651927
100.05143409790332
100.06047510774044
100.08348400776143
100.13775810595016
100.2606215407105
100.52811532519672
101.08675852391671
102.20203869557994
104.32267189248489
108.14898158335623
114.677465905492
125.17886474898918
141.06810368046035
163.65731091978702
193.844189340825
199.83643360092253
168.34976483327114
144.50816695697503
127.540402854715
116.19923391799156
109.07486322759335
104.86083207346276
102.50781051942162
101.26391509540251
100.63956011216469
100.34122255598396
100.20522149011045
100.1460152763117
100.12149797400494
100.11218626641251
100.10990240791307
100.11236142071192
100.12146584817572
100.14450625761488
100.19879856758747
100.32167516745025
100.58918120784843
101.14783931302543
102.26314792402172
104.38385224981334
108.21035724676686
114.73939435890554
125.24225131630403
141.1353235473858
163.73406694001827
193.94360358023317
199.84690833630762
168.36690146770897
144.5346515585416
127.57904498652951
116.25238669039112
109.14389886740561
104.94576305204183
102.6073093148976
101.37562166908938
100.76065321043114
100.46895013865243
100.3372685139344
100.28065897785072
100.2575863052866
100.24902076790609
100.2470962067854
100.24971763800701
100.25889201763127
100.28196220153366
100.33626838102104
100.4591541369468
100.72667189555803
101.28535681635698
102.40073574439243
104.52163532808297
108.34867271727619
114.8791512362283
125.38574371477162
141.28811796103145
163.90900400884044
194.16863854905944
199.87687898848554
168.41458961613603
144.60649170883588
127.68079565032478
116.38820199765216
109.31501535727838
105.150265298543
102.8406371586537
101.63170537716115
101.03321089515963
100.75246338985951
100.62749394272247
100.57468010125356
100.55359414365641
100.54599423918158
100.54450710668381
100.54731433869352
100.55656350068148
100.57966322677377
100.63398308059996
100.75688154729833
101.0244255215773
101.58318149866774
102.69875788731245
104.82019680715665
108.64867627935365
115.18284907176195
125.69862997014145
141.62283316282875
164.29316728249603
194.65900784951273
199.95772376140704
168.54016151064576
144.7901182879337
127.93318496989629
116.71472209336712
109.7141722224935
105.61419922323131
103.35720857212029
102.18738563075617
101.61552842232892
101.35144898430771
101.23608316628508
101.18837690817116
101.16980672460916
101.16335873357656
101.1623639161716
101.16536862897343
101.17469335926533
101.19782299865327
101.25216125111966
101.37508920219926
101.64270926030632
102.20167264890596
103.31780855494927
105.44071559200722
109.27294365727573
115.8163391880775
126.35391813881498
142.32736234107085
165.10340219207035
195.68379439227343
200.1627865485863
168.85044490358422
145.2305769480027
128.5200946461841
117.45078536014205
110.58795967292228
106.6035281896747
104.43488418426095
103.32684178937883
102.79457186336249
102.55378742353611
102.45103911408737
102.40964444901618
102.39400167298776
102.38881762859458
102.38833379357682
102.39153368475758
102.40093139011829
102.42409482275129
102.47846974755785
102.60148144574916
102.86932499701427
103.4288833167202
104.54656343147433
106.67336253082263
110.51504939480493
117.08060633009828
127.66788718720609
143.74757276385256
166.73884329973737
197.73004642282942
200.6512619351771
169.56838929040848
146.2186069908699
129.79524314529144
119.00146670776041
112.37794926929135
108.58233140573995
106.54960275132453
105.53102176284261
105.0526589816786
104.84168372200939
104.75411289314123
104.71986399935476
104.70734665691371
104.70343858679658
104.70344399778679
104.70682387444852
104.71629317558033
104.73950837674624
104.7939788802227
104.91723535892666
105.18572207926557
105.74693300119264
106.86872952214661
109.00543819841006
112.87008111099408
119.48662569932466
130.18201799647082
146.47944675420007
169.88507296869548
201.61676359771673
201.7374806979092
171.11686172539143
148.28211432571152
132.37434415430664
122.04540930017733
115.80129064641491
112.28761842412713
110.44616590121406
109.54598180105455
109.13464088236378
108.95848650303178
108.88759440003916
108.86074764448713
108.85128857279085
108.84856491594562
108.8490056292219
108.85254610064956
108.86209923354751
108.88542773195067
108.94016888977082
109.06412639123884
109.33439989487415
109.90002738537406
111.03236370301008
113.1932557620402
117.11109263418692
123.83931497469938
134.75761079429353
151.4760886596228
175.63054141514272
208.60886402750452
203.98418348680917
174.21875574346797
152.28126354275886
137.21587958501271
127.59929820334901
121.90292397840867
118.77381789575749
117.17777010664102
116.42020749570098
116.08467443430085
115.94555282611825
115.89137692566675
115.8715407958619
115.86482865985136
115.8631186418215
115.86392351209649
115.86761894171575
115.87731679600704
115.90094770351804
115.95645391852432
116.08234782354346
116.35738141279182
116.93430099689823
118.0923824061346
120.30946959747685
124.34427766145159
131.30375910492617
142.65456782395137
160.13516487686846
185.54927584244936
220.4703734007908
208.293098738875
179.97307770694897
159.45450147199702
145.63204151617526
137.00405881637028
132.03036537568343
129.37850107970792
128.06804484914664
127.46620358257616
127.20846401649337
127.10515041761066
127.06624933797315
127.05248412334579
127.0480384715451
127.04713857107578
127.04825038087392
127.05214752535964
127.06218743572923
127.0866526957443
127.14425238426021
127.2752673513254
127.56239719484815
128.16677708095807
129.3845158026503
131.72510009904065
136.00240476283784
143.41157171858083
155.54653123741852
174.30788636930248
201.67501539470933
239.36810451308395
215.9430045628241
189.84436018821907
171.33962717736907
159.15595427994424
151.79091452513865
147.6833849040874
145.56651527119325
144.5560207318241
144.1078251724297
143.92240460826827
143.85055772426486
143.82438907581385
143.81544551010668
143.81272883077244
143.81245208394856
143.8138778468432
143.81817592292498
143.82912548892924
143.85584190208854
143.91891991828874
144.0628251303166
144.37912215278456
145.04667589476995
146.39479019073767
148.9904858956593
153.73869158044107
161.9635924615863
175.41778166315905
196.16046371636963
226.28357453189287
267.5392239789293
228.52630606925885
205.51988677802422
189.44060867876993
179.30898875268892
173.40609748970152
170.23096419095563
168.65251237524893
167.92547805254583
167.61411934783644
167.4896173244313
167.44293192046266
167.42646105361794
167.42104138865258
167.41957472772768
167.4198255912464
167.4217421509854
167.42703329659454
167.44039355810955
167.47293627436193
167.54965910258144
167.7243225886067
168.10704428331772
168.91137893694017
170.52667857247116
173.6147638417858
179.21415379771062
188.81090449936784
204.31240015105058
227.85881531782746
261.4412644665685
306.6743604739672
248.1864631192424
227.98828739892798
215.07779547390578
207.24266362524423
202.8444566767152
200.56422246077062
199.47095263298257
198.9848083598698
198.7835330810939
198.7056032615162
198.67726827162485
198.66758263964672
198.66456976460034
198.6640270312716
198.66492050040932
198.66793494397297
198.6758001804984
198.69532263325047
198.7422150196793
198.85113876553916
199.0950879768658
199.62008556579804
200.70184002988952
202.82794774989114
206.7989300865893
213.82170773212576
225.54401608278408
243.96119214706667
271.13442671871115
308.6832155969361
355.7934876586717
