# vtk DataFile Version 2.0
Unstructured Grid Example
ASCII
DATASET UNSTRUCTURED_GRID

POINTS 961 float
0.150000006 -0.00839745998 0
0.146666661 -0.00839745998 0
0.143333331 -0.00839745998 0
0.140000001 -0.00839745998 0
0.13666667 -0.00839745998 0
0.13333334 -0.00839745998 0
0.129999995 -0.00839745998 0
0.126666665 -0.00839745998 0
0.123333335 -0.00839745998 0
0.119999997 -0.00839745998 0
0.116666667 -0.00839745998 0
0.113333337 -0.00839745998 0
0.109999999 -0.00839745998 0
0.106666669 -0.00839745998 0
0.103333332 -0.00839745998 0
0.100000001 -0.00839745998 0
0.0966666639 -0.00839745998 0
0.0933333337 -0.00839745998 0
0.0900000036 -0.00839745998 0
0.086666666 -0.00839745998 0
0.0833333358 -0.00839745998 0
0.0799999982 -0.00839745998 0
0.0766666681 -0.00839745998 0
0.0733333305 -0.00839745998 0
0.0700000003 -0.00839745998 0
0.0666666701 -0.00839745998 0
0.0633333325 -0.00839745998 0
0.0599999987 -0.00839745998 0
0.0566666685 -0.00839745998 0
0.0533333346 -0.00839745998 0
0.0500000007 -0.00839745998 0
0.148333326 -0.0112842107 0
0.144999996 -0.0112842107 0
0.141666666 -0.0112842107 0
0.138333336 -0.0112842107 0
0.135000005 -0.0112842107 0
0.13166666 -0.0112842107 0
0.12833333 -0.0112842107 0
0.125 -0.0112842107 0
0.12166667 -0.0112842107 0
0.118333332 -0.0112842107 0
0.115000002 -0.0112842107 0
0.111666664 -0.0112842107 0
0.108333334 -0.0112842107 0
0.104999997 -0.0112842107 0
0.101666667 -0.0112842107 0
0.0983333364 -0.0112842107 0
0.0949999988 -0.0112842107 0
0.0916666687 -0.0112842107 0
0.088333331 -0.0112842107 0
0.0850000009 -0.0112842107 0
0.0816666633 -0.0112842107 0
0.0783333331 -0.0112842107 0
0.075000003 -0.0112842107 0
0.0716666654 -0.0112842107 0
0.0683333352 -0.0112842107 0
0.0649999976 -0.0112842107 0
0.0616666675 -0.0112842107 0
0.0583333336 -0.0112842107 0
0.0549999997 -0.0112842107 0
0.0516666658 -0.0112842107 0
0.0483333319 -0.0112842107 0
0.146666661 -0.0141709624 0
0.143333331 -0.0141709624 0
0.140000001 -0.0141709624 0
0.13666667 -0.0141709624 0
0.13333334 -0.0141709624 0
0.129999995 -0.0141709624 0
0.126666665 -0.0141709624 0
0.123333335 -0.0141709624 0
0.119999997 -0.0141709624 0
0.116666667 -0.0141709624 0
0.113333337 -0.0141709624 0
0.109999999 -0.0141709624 0
0.106666669 -0.0141709624 0
0.103333332 -0.0141709624 0
0.100000001 -0.0141709624 0
0.0966666639 -0.0141709624 0
0.0933333337 -0.0141709624 0
0.0900000036 -0.0141709624 0
0.086666666 -0.0141709624 0
0.0833333358 -0.0141709624 0
0.0799999982 -0.0141709624 0
0.0766666681 -0.0141709624 0
0.0733333305 -0.0141709624 0
0.0700000003 -0.0141709624 0
0.0666666701 -0.0141709624 0
0.0633333325 -0.0141709624 0
0.0599999987 -0.0141709624 0
0.0566666685 -0.0141709624 0
0.0533333346 -0.0141709624 0
0.0500000007 -0.0141709624 0
0.0466666669 -0.0141709624 0
0.144999996 -0.0170577131 0
0.141666666 -0.0170577131 0
0.138333336 -0.0170577131 0
0.135000005 -0.0170577131 0
0.13166666 -0.0170577131 0
0.12833333 -0.0170577131 0
0.125 -0.0170577131 0
0.12166667 -0.0170577131 0
0.118333332 -0.0170577131 0
0.115000002 -0.0170577131 0
0.111666664 -0.0170577131 0
0.108333334 -0.0170577131 0
0.104999997 -0.0170577131 0
0.101666667 -0.0170577131 0
0.0983333364 -0.0170577131 0
0.0949999988 -0.0170577131 0
0.0916666687 -0.0170577131 0
0.088333331 -0.0170577131 0
0.0850000009 -0.0170577131 0
0.0816666633 -0.0170577131 0
0.0783333331 -0.0170577131 0
0.075000003 -0.0170577131 0
0.0716666654 -0.0170577131 0
0.0683333352 -0.0170577131 0
0.0649999976 -0.0170577131 0
0.0616666675 -0.0170577131 0
0.0583333336 -0.0170577131 0
0.0549999997 -0.0170577131 0
0.0516666658 -0.0170577131 0
0.0483333319 -0.0170577131 0
0.0450000018 -0.0170577131 0
0.143333331 -0.0199444648 0
0.140000001 -0.0199444648 0
0.13666667 -0.0199444648 0
0.13333334 -0.0199444648 0
0.129999995 -0.0199444648 0
0.126666665 -0.0199444648 0
0.123333335 -0.0199444648 0
0.119999997 -0.0199444648 0
0.116666667 -0.0199444648 0
0.113333337 -0.0199444648 0
0.109999999 -0.0199444648 0
0.106666669 -0.0199444648 0
0.103333332 -0.0199444648 0
0.100000001 -0.0199444648 0
0.0966666639 -0.0199444648 0
0.0933333337 -0.0199444648 0
0.0900000036 -0.0199444648 0
0.086666666 -0.0199444648 0
0.0833333358 -0.0199444648 0
0.0799999982 -0.0199444648 0
0.0766666681 -0.0199444648 0
0.0733333305 -0.0199444648 0
0.0700000003 -0.0199444648 0
0.0666666701 -0.0199444648 0
0.0633333325 -0.0199444648 0
0.0599999987 -0.0199444648 0
0.0566666685 -0.0199444648 0
0.0533333346 -0.0199444648 0
0.0500000007 -0.0199444648 0
0.0466666669 -0.0199444648 0
0.043333333 -0.0199444648 0
0.141666666 -0.0228312165 0
0.138333336 -0.0228312165 0
0.135000005 -0.0228312165 0
0.13166666 -0.0228312165 0
0.12833333 -0.0228312165 0
0.125 -0.0228312165 0
0.12166667 -0.0228312165 0
0.118333332 -0.0228312165 0
0.115000002 -0.0228312165 0
0.111666664 -0.0228312165 0
0.108333334 -0.0228312165 0
0.104999997 -0.0228312165 0
0.101666667 -0.0228312165 0
0.0983333364 -0.0228312165 0
0.0949999988 -0.0228312165 0
0.0916666687 -0.0228312165 0
0.088333331 -0.0228312165 0
0.0850000009 -0.0228312165 0
0.0816666633 -0.0228312165 0
0.0783333331 -0.0228312165 0
0.075000003 -0.0228312165 0
0.0716666654 -0.0228312165 0
0.0683333352 -0.0228312165 0
0.0649999976 -0.0228312165 0
0.0616666675 -0.0228312165 0
0.0583333336 -0.0228312165 0
0.0549999997 -0.0228312165 0
0.0516666658 -0.0228312165 0
0.0483333319 -0.0228312165 0
0.0450000018 -0.0228312165 0
0.0416666679 -0.0228312165 0
0.140000001 -0.0257179681 0
0.13666667 -0.0257179681 0
0.13333334 -0.0257179681 0
0.129999995 -0.0257179681 0
0.126666665 -0.0257179681 0
0.123333335 -0.0257179681 0
0.119999997 -0.0257179681 0
0.116666667 -0.0257179681 0
0.113333337 -0.0257179681 0
0.109999999 -0.0257179681 0
0.106666669 -0.0257179681 0
0.103333332 -0.0257179681 0
0.100000001 -0.0257179681 0
0.0966666639 -0.0257179681 0
0.0933333337 -0.0257179681 0
0.0900000036 -0.0257179681 0
0.086666666 -0.0257179681 0
0.0833333358 -0.0257179681 0
0.0799999982 -0.0257179681 0
0.0766666681 -0.0257179681 0
0.0733333305 -0.0257179681 0
0.0700000003 -0.0257179681 0
0.0666666701 -0.0257179681 0
0.0633333325 -0.0257179681 0
0.0599999987 -0.0257179681 0
0.0566666685 -0.0257179681 0
0.0533333346 -0.0257179681 0
0.0500000007 -0.0257179681 0
0.0466666669 -0.0257179681 0
0.043333333 -0.0257179681 0
0.0399999991 -0.0257179681 0
0.138333336 -0.0286047198 0
0.135000005 -0.0286047198 0
0.13166666 -0.0286047198 0
0.12833333 -0.0286047198 0
0.125 -0.0286047198 0
0.12166667 -0.0286047198 0
0.118333332 -0.0286047198 0
0.115000002 -0.0286047198 0
0.111666664 -0.0286047198 0
0.108333334 -0.0286047198 0
0.104999997 -0.0286047198 0
0.101666667 -0.0286047198 0
0.0983333364 -0.0286047198 0
0.0949999988 -0.0286047198 0
0.0916666687 -0.0286047198 0
0.088333331 -0.0286047198 0
0.0850000009 -0.0286047198 0
0.0816666633 -0.0286047198 0
0.0783333331 -0.0286047198 0
0.075000003 -0.0286047198 0
0.0716666654 -0.0286047198 0
0.0683333352 -0.0286047198 0
0.0649999976 -0.0286047198 0
0.0616666675 -0.0286047198 0
0.0583333336 -0.0286047198 0
0.0549999997 -0.0286047198 0
0.0516666658 -0.0286047198 0
0.0483333319 -0.0286047198 0
0.0450000018 -0.0286047198 0
0.0416666679 -0.0286047198 0
0.038333334 -0.0286047198 0
0.13666667 -0.0314914696 0
0.13333334 -0.0314914696 0
0.129999995 -0.0314914696 0
0.126666665 -0.0314914696 0
0.123333335 -0.0314914696 0
0.119999997 -0.0314914696 0
0.116666667 -0.0314914696 0
0.113333337 -0.0314914696 0
0.109999999 -0.0314914696 0
0.106666669 -0.0314914696 0
0.103333332 -0.0314914696 0
0.100000001 -0.0314914696 0
0.0966666639 -0.0314914696 0
0.0933333337 -0.0314914696 0
0.0900000036 -0.0314914696 0
0.086666666 -0.0314914696 0
0.0833333358 -0.0314914696 0
0.0799999982 -0.0314914696 0
0.0766666681 -0.0314914696 0
0.0733333305 -0.0314914696 0
0.0700000003 -0.0314914696 0
0.0666666701 -0.0314914696 0
0.0633333325 -0.0314914696 0
0.0599999987 -0.0314914696 0
0.0566666685 -0.0314914696 0
0.0533333346 -0.0314914696 0
0.0500000007 -0.0314914696 0
0.0466666669 -0.0314914696 0
0.043333333 -0.0314914696 0
0.0399999991 -0.0314914696 0
0.0366666652 -0.0314914696 0
0.135000005 -0.0343782231 0
0.13166666 -0.0343782231 0
0.12833333 -0.0343782231 0
0.125 -0.0343782231 0
0.12166667 -0.0343782231 0
0.118333332 -0.0343782231 0
0.115000002 -0.0343782231 0
0.111666664 -0.0343782231 0
0.108333334 -0.0343782231 0
0.104999997 -0.0343782231 0
0.101666667 -0.0343782231 0
0.0983333364 -0.0343782231 0
0.0949999988 -0.0343782231 0
0.0916666687 -0.0343782231 0
0.088333331 -0.0343782231 0
0.0850000009 -0.0343782231 0
0.0816666633 -0.0343782231 0
0.0783333331 -0.0343782231 0
0.075000003 -0.0343782231 0
0.0716666654 -0.0343782231 0
0.0683333352 -0.0343782231 0
0.0649999976 -0.0343782231 0
0.0616666675 -0.0343782231 0
0.0583333336 -0.0343782231 0
0.0549999997 -0.0343782231 0
0.0516666658 -0.0343782231 0
0.0483333319 -0.0343782231 0
0.0450000018 -0.0343782231 0
0.0416666679 -0.0343782231 0
0.038333334 -0.0343782231 0
0.0350000001 -0.0343782231 0
0.13333334 -0.0372649729 0
0.129999995 -0.0372649729 0
0.126666665 -0.0372649729 0
0.123333335 -0.0372649729 0
0.119999997 -0.0372649729 0
0.116666667 -0.0372649729 0
0.113333337 -0.0372649729 0
0.109999999 -0.0372649729 0
0.106666669 -0.0372649729 0
0.103333332 -0.0372649729 0
0.100000001 -0.0372649729 0
0.0966666639 -0.0372649729 0
0.0933333337 -0.0372649729 0
0.0900000036 -0.0372649729 0
0.086666666 -0.0372649729 0
0.0833333358 -0.0372649729 0
0.0799999982 -0.0372649729 0
0.0766666681 -0.0372649729 0
0.0733333305 -0.0372649729 0
0.0700000003 -0.0372649729 0
0.0666666701 -0.0372649729 0
0.0633333325 -0.0372649729 0
0.0599999987 -0.0372649729 0
0.0566666685 -0.0372649729 0
0.0533333346 -0.0372649729 0
0.0500000007 -0.0372649729 0
0.0466666669 -0.0372649729 0
0.043333333 -0.0372649729 0
0.0399999991 -0.0372649729 0
0.0366666652 -0.0372649729 0
0.0333333351 -0.0372649729 0
0.13166666 -0.0401517227 0
0.12833333 -0.0401517227 0
0.125 -0.0401517227 0
0.12166667 -0.0401517227 0
0.118333332 -0.0401517227 0
0.115000002 -0.0401517227 0
0.111666664 -0.0401517227 0
[...]
POINT_DATA 961
SCALARS Temp float 1
LOOKUP_TABLE default
430.0811624239891
382.2393123215849
341.48535688303866
308.586242734302
283.0791901893858
264.0723635864757
250.4551901662034
241.07127788229315
234.84692347707787
230.86957703740413
228.41864385382695
226.96042817492037
226.1217262429142
225.65486100991802
225.40322766017445
225.27235818448972
225.20823735427962
225.182753630142
225.1854977837111
225.22124179430782
225.31312093423412
225.51221861922824
225.91463151063425
226.6865329891038
228.0956579163186
230.54413384425106
234.59307548432216
240.96649400951193
250.52451666569831
264.2100540082124
283.2115923993354
382.2393509262303
335.76147611085327
297.57295863271867
267.31917089579025
244.27226981247588
227.38820548981684
215.49006616395044
207.42074183329697
202.15012915041683
198.8315657521868
196.81520164789916
195.6315094278022
194.959334687929
194.58975055490075
194.39312516420517
194.29282078439408
194.24636288484072
194.23356989768894
194.25082992755844
194.31116241072084
194.4504114380508
194.7405336020074
195.31092995348303
196.3775041306069
198.27630331006935
201.49436502673692
206.68606907804875
214.6620014013854
226.34120372871115
242.6751919607527
264.21007405039165
341.4853139700159
297.5729382081923
261.97441489624157
234.15485326433222
213.21670477610715
198.0434679888621
187.45496077379426
180.33612390830325
175.7219330906415
172.8361087776174
171.09278922800289
170.07443505212453
169.49860522915716
169.18325993023777
169.01643151842882
168.93270432948978
168.8969079236688
168.89444687963555
168.92768016458209
169.01830644327683
169.21636804803072
169.61688517069229
170.3846368483857
171.78566581964603
174.22062131830242
178.2504784030949
184.60150086113995
194.1357544663856
207.77585820080694
226.3411945151196
250.52452726520548
308.5861858492687
267.31913988432484
234.1548536805691
208.4364622305938
189.20260199286335
175.33433078157373
165.69288190904555
159.22792578603747
155.0445015400679
152.43018715050107
150.85101146729707
149.9280971452891
149.40580054160486
149.11962329606257
148.96859539434038
148.89417314150586
148.86593807599746
148.87367572166033
148.9255318436518
149.05245215908084
149.31967107835806
149.84608575092545
150.83134667921547
152.58804075712857
155.57244284966427
160.4028536878932
167.8518828440999
178.79928220659843
194.13577043196713
214.66201461665693
240.96648556027523
283.0791367239098
244.27224066459604
213.21668845270165
189.20267227936117
171.2716720945967
158.34818920940378
149.358578960049
143.32265933055908
139.40935905770354
136.95809405744015
135.47351761299967
134.60350478221213
134.10985670362658
133.8389199713368
133.6963131862783
133.6277027946144
133.6060046179029
133.62483680623237
133.69815985032602
133.86647599098652
134.21033746465338
134.871652347401
136.08184282108928
138.19310622616146
141.70499524342938
147.27473821529173
155.698228386748
167.8518759039837
184.6014960811571
206.68606754688062
234.59308127677443
264.0723092939252
227.3882432876187
198.0435176342832
175.3342988551238
158.34817665769924
146.0757434284893
137.5141634813835
131.7473572957524
127.99624124358907
125.63887538311357
124.20667050398455
123.36488297026571
122.88607076795775
122.6229923741647
122.48513739297704
122.42085167578406
122.40564159390122
122.43670268975674
122.53376443124884
122.74669864602915
123.17049408327468
123.96763506603745
125.39622563558592
127.83921782623901
131.82629605850863
138.0371638479807
147.27473497456796
160.40285507358283
178.250485351379
201.4943435821158
230.544128276181
250.45520037017198
215.49009042871577
187.45500853582018
165.69284431663422
149.35856378208288
137.51415941507454
129.22131196369537
123.61622317509794
119.95854560940792
117.65315234595906
116.24885522510088
115.42161443595042
114.95030420254412
114.6913538434207
114.55654477944562
114.49606464711718
114.48761455164554
114.53176147150252
114.65372325300899
114.91200194298737
115.41425068618112
116.33997887343095
117.9678724094242
120.70252541767726
125.09209701181653
131.82629211218733
141.70498703628257
155.57243100206077
174.2206201109498
198.2763013842131
228.09566654352525
241.07129388237655
207.42076954051473
180.33606636070652
159.22789213533002
143.32265919694052
131.7473689879269
123.61622026692353
118.10440518016478
114.49848248159874
112.22080145739702
110.8308602767588
110.01090490580742
109.54336985615306
109.28675666394216
109.15425975704977
109.09745219385165
109.09597009764495
109.15347476602474
109.30011682730247
109.6018255601337
110.17657181571043
111.21686990852342
113.01591290035682
115.9919190324278
120.70252317198505
127.83921456431446
138.19310827876365
152.5880421213495
171.78565107256264
196.3774847570506
226.68652284376765
234.8469316382173
202.150163325751
175.72188848282823
155.04448369157382
139.40936169129805
127.99623074593532
119.95854286343459
114.49849076482879
110.9202032595928
108.65678707508413
107.2740102203966
106.45764070491245
105.99206795410443
105.73697412110661
105.60648725057989
105.55329481658963
105.55872826467834
105.62915732916001
105.79889421080652
106.13982193665
106.77769754367701
107.91416765825795
109.85167804604043
113.01591504929806
117.96787324740954
125.39622512044642
136.08184143314998
150.83134238269517
170.38464049777886
195.31093712452858
225.91465045359428
230.86961534262912
198.83150146633037
172.83608521045375
152.43018324445563
136.95810674968422
125.63887428385537
117.65315836737166
112.22079936866393
108.65678543015457
106.40049162868263
105.02122136778188
104.20663716901052
103.74218947842577
103.48825677769373
103.35963385731561
103.30992534024142
103.32189846506334
103.40415923983345
103.5943015752904
103.96864467575624
104.65837428087569
105.87098868067963
107.91416607299108
111.21686958623012
116.33997851740608
123.96763430931385
134.87165179897335
149.8460679686473
169.61687026081879
194.74051668839377
225.51221020969513
228.41870413035997
196.81515098027438
171.09277571516068
150.8510174166073
135.47350647538133
124.206671727535
116.24886321773775
110.83086068024653
107.27401231045454
105.02122116967404
103.6436841920731
102.83006395380116
102.36638832342335
102.11346669691758
101.98659540976912
101.9401219425498
101.95797123658275
102.05048285605615
102.25766370808516
102.65889632614248
103.38884332613229
104.65837616987876
106.77769805076319
110.17657037902079
115.41424841109215
123.17049281429259
134.21033451959946
149.319669185651
169.21637337991982
194.45041994004856
225.31310771006468
226.96036732847338
195.63147608071415
170.0744325116591
149.9281096664818
134.60349520672432
123.36488744516672
115.42160951330858
110.0109059063015
106.45763697731647
104.20663710472991
102.83006544080645
102.01710366952882
101.55409654314673
101.3021377653838
101.17690394976597
101.13332118153869
101.15619578321785
101.25712530762641
101.47776813036985
101.89946265705174
102.65889777957769
103.96864571230621
106.13982121814274
109.60182872780653
114.91200630545065
122.74670585318083
133.86647089580066
149.0524460539863
169.01830779591342
194.31116439818965
225.22125578106207
226.12169675863277
194.95932789714115
169.49862228802567
149.40578629990756
134.1098587534984
122.88608384602222
114.9503031167702
109.54337423203442
105.99206624020435
103.74219078137496
102.36638748541743
101.55409603977773
101.09182752315175
100.8408678678098
100.71717389560388
100.67610273855654
100.70309295131715
100.81059781197779
101.04132679268969
101.47776692266514
102.25766332608872
103.59430304143308
105.79889149382265
109.30011581857813
114.65372158121134
122.53376198260565
133.6981580954376
148.92553023478428
168.9276870013994
194.25080713217469
225.185501681832
225.65483710328928
194.58974857688636
169.18328300121541
149.11961066863867
133.83892408358022
122.62298401021938
114.69135449416277
109.28675316716605
105.73697299816834
103.48825873263709
102.11346569573371
101.3021377691608
100.8408677421634
100.59106514104772
100.46888336635372
100.42998835411048
100.46025073199466
100.5726747961362
100.81059762508052
101.25712563778848
102.05048274545523
103.40416015741273
105.62915707959553
109.15347742842599
114.5317659751669
122.4366991526621
133.62483237576564
148.87367061168047
168.89444830487378
194.23357366853497
225.18275278275433
225.40322598649877
194.39314393475544
169.0164172282665
148.96859604257963
133.69632955912638
122.48513563026629
114.55655162034272
109.15425902416796
105.60648719997258
103.3596334402038
101.98659541389142
101.17690431048528
100.71717376233029
100.46888352268108
100.34832810893037
100.31139505862573
100.34425128386854
100.46025060961789
100.70309263869204
101.15619537290972
101.95797127768523
103.32189782804964
105.55872568375558
109.09596917465032
114.48761283906106
122.40564050263716
133.60600375077289
148.86593771758305
168.89689154182264
194.2463590049744
225.2082289288544
225.27235862551368
194.292843009942
168.9326917132638
148.89417668645498
133.62769041682878
122.42085159574279
114.49605861240491
109.09745261223446
105.55329615605893
103.30992495508295
101.94012214439844
101.13332030538551
100.67610279480412
100.42998813146556
100.31139506408068
100.27639767513894
100.31139512615242
100.42998822243423
100.67610310930895
101.13332069681395
101.94012170350194
103.30992634274664
105.55329480084741
109.09745526460006
114.49606204915173
122.42084857500123
133.6276998795404
148.89416862532605
168.93270880731322
194.2928108714279
225.27236011422374
225.20825943041874
194.246339653988
168.8969149090879
148.86595782293114
133.60600116063554
122.40565050137492
114.48761323149448
109.09597281093423
105.5587256955558
103.321899525192
101.95797250852512
101.15619537983848
100.70309342435012
100.4602506863219
100.34425134751055
100.3113951729491
100.34832820819011
100.46888324921137
100.71717389935797
101.17690371070827
101.98659449418443
103.35963347440816
105.60648483804141
109.15425862436547
114.55654433860558
122.48513705735131
133.69631364663198
148.96857652507438
169.01642859272755
194.3931084262288
225.4032196792927
225.182785327372
194.23355241092565
168.89445806371975
148.87365700771866
133.6248358978437
122.43669363168615
114.53176170806263
109.15347930869535
105.62915478319049
103.40416083999672
102.05048206244814
101.25712509058435
100.8105974477794
100.5726746668587
100.46025084043274
100.42998838209232
100.468883403614
100.59106530922612
100.8408679472851
101.30213748295387
102.11346648101804
103.48825777185975
105.73697453819527
109.28675513275458
114.69135193899378
122.62298997141538
133.83891665340826
149.1196213570278
169.18325150135001
194.5897419817327
225.65486224153406
225.18546482649256
194.25081964603663
168.92769763775863
148.92551475497964
133.69816277255853
122.53375606059761
114.65372257201278
109.30011285423058
105.79889229422666
103.59430384195586
102.25766256360737
101.47776779638609
101.04132659321769
100.81059767599909
100.7030929309359
100.67610272872064
100.71717378239617
100.8408680116009
101.09182732304296
101.55409581310472
102.36638804632359
103.74219025065486
105.99206751836398
109.54337173270834
114.95030773217671
122.88607739650062
134.10985105101537
149.4058036534256
169.4986046405013
194.95933490975386
226.12173688944068
225.2212344486029
194.3111753914359
169.0182886599659
149.0524497926653
133.86646260421136
122.74669947150775
114.91200893165927
109.601825203348
106.13982229773637
103.96864462241396
102.65889689702809
101.89946234971488
101.47776788706754
101.25712555491127
101.1561958095854
101.13332118577894
101.17690402958398
101.30213785695969
101.55409636029411
102.0171040921622
102.83006479126762
104.20663797126925
106.4576380334782
110.01090393220035
115.42161318373407
123.3648814583333
134.60350258443353
149.92808443203214
170.07442778737186
195.63150132149414
226.96042862209015
225.31311721493284
194.45042972709928
169.21635183509926
149.31967447874823
134.2103260360149
123.17049417648339
115.41424400663723
110.17657164753533
106.7776993481584
104.65837497671791
103.38884480174552
102.6588960451402
102.25766349171904
102.0504827905676
101.95797115205502
101.94012193497898
101.98659552018628
102.1134665654256
102.36638821009147
102.83006425391389
103.64368381425152
105.02122188641427
107.2740105645773
110.83086365027879
116.24885854709244
124.2066663299821
135.47352010220587
150.8510061196697
171.09278804220472
196.81520144265082
228.41864038666736
225.51221659054525
194.74048962487655
169.61687417752532
149.84605667141878
134.87164310119292
123.96763807519407
116.33997354447955
111.21687131281445
107.91416449314391
105.8709873759601
104.65837380208997
103.96864425892984
103.59430202776115
103.40415932311716
103.32189846137851
103.30992537249674
103.35963387970664
103.48825667128344
103.74218970752018
104.20663677468491
105.0212219099392
106.40049222491079
108.65678417732069
112.22080191545261
117.65315452870281
125.6388806626644
136.9580899111747
152.4301847488889
172.8361166711335
198.83157692085584
230.86959327838656
225.9146788184178
195.3109290583438
170.38466289809486
150.83134415040362
136.08185377238112
125.3962272832214
117.96788189366238
113.01592263067508
109.85168109352183
107.91417429539992
106.77770120893463
106.13982545539561
105.79889781439113
105.6291607972765
105.55873198664824
105.55329856889175
105.60649072281875
105.73697763999927
105.99207155373887
106.45764371383571
107.27401363917681
108.65678856035532
110.92020718553779
114.49848875490387
119.95853950059467
127.99623989156304
139.4093516464956
155.04449170665208
175.72192824239193
202.15009931812358
234.84690515283984
226.6865163843199
196.37751095210183
171.78565397846765
152.58804508482422
138.1931250933739
127.8392177110251
120.70253406619723
115.99192419299608
113.01591772858671
111.21687540532511
110.17657708348025
109.60183208910593
109.30012276682359
109.15348045703026
109.09597575178067
109.09745778116023
109.1542652975893
109.28676232861358
109.54337508854711
110.01091060424739
110.83086562256275
112.22080537286153
114.4984882991528
118.10440597120441
123.61622725783727
131.74735788499333
143.322660407844
159.22791509475354
180.33612092364325
207.42073498418947
241.0712776096173
228.09565189685244
198.27632100266996
174.22061611962354
155.5724421073506
141.70498616781208
131.82630100510502
125.09210530399746
120.7025279058148
117.96788037397522
116.33998291900006
115.41425456856662
114.91200595897958
114.65372704390808
114.53176580898774
114.48761893767774
114.49606868706675
114.55654904285056
114.69135809715425
114.95030812222313
115.4216187416537
116.24885856177026
117.65315746688833
119.95854720937962
123.61622472209433
129.22132291629933
137.51415725130545
149.35857603073774
165.69288146928614
187.4549566044282
215.49006483228962
250.45520224060712
230.5441364710382
201.49432823974047
178.25047324361245
160.40286273014272
147.27472759851028
138.03716792261582
131.8262937006595
127.83921575381119
125.3962248141983
123.9676341520211
123.1704952160763
122.74669915223586
122.53376456296026
122.43670274591548
122.40564155681511
122.42085174761873
122.48513755141192
122.62299238333746
122.88607128739525
123.36488324101508
124.20667033825941
125.63887690182031
127.99624003918379
131.74736115985232
137.51415530556991
146.07574524277402
158.3481957568307
175.33434241700994
198.04348320118697
227.38821681917585
264.07231000623983
234.59307851124498
206.6860413538781
184.60149031312577
167.8518572889709
155.6982231530886
147.27473321720518
141.70498345176517
138.19310199034007
136.08183391528067
134.87164332050486
134.2103286314721
133.86646681367574
133.69815156021383
133.62482861933572
133.6059959663349
133.6276945540882
133.69630484884385
133.8389114217063
134.10984853542246
134.603496258177
135.47351040947675
136.95808480801128
139.40935060624187
143.32265776786318
149.35856798753875
158.34818918109804
171.27169057917678
189.2026135740917
213.21664574033605
244.27221268400692
283.079131677915
240.96649861421722
214.6620298245391
194.13580705333342
178.7992999007545
167.85191265615398
160.40287484092212
155.57246374256746
152.58806264436987
150.83136816002187
149.84610979196378
149.31969435773166
149.0524748510909
148.92555435754394
148.8736980716598
148.86596066382617
148.89419572815873
148.9686179089075
149.1196462324301
149.40582294801234
149.9281192783737
150.8510344336064
152.43020766749058
155.04452458568866
159.22793849374182
165.69289977096875
175.33435852099157
189.2026439062396
208.43642944886813
234.15481552255767
267.3191095894232
308.5861888001644
250.5245383655161
226.34122783739116
207.77587456090302
194.13578386308814
184.60152914577978
178.25049791390578
174.22064900389205
171.7856878975855
170.38465858818017
169.61690697344378
169.21638924113515
169.01832872164272
168.92770258647647
168.8944687434215
168.89693032571336
168.93272650806423
169.0164534383102
169.18328204577796
169.4986270713071
170.07445747408846
171.09280968348955
172.83612946173506
175.7219574865147
180.33613885069835
187.4549813595969
198.0434987255518
213.2166630362301
234.15481521270607
261.974375174885
297.5729029078181
341.4853079714251
264.21007682311574
242.675215435469
226.34120640847723
214.66201702254162
206.68607560908532
201.49437149049348
198.27631096091696
196.37751149683234
195.31094049668758
194.74054328511738
194.4504203086045
194.31117111235056
194.25083845886752
194.2335788630028
194.24637177286334
194.2928296738961
194.39313448667184
194.58975925831928
194.95934346033934
195.63151887661837
196.81520927143794
198.8315752576013
202.1501305154106
207.42074711589143
215.4900784758352
227.38822806610054
244.27222359744934
267.3191134560969
297.5728954668329
335.7614158697807
382.2392421273137
283.2116087585016
264.2100484688325
250.524523861687
240.96650020093472
234.59307218560025
230.54413926895626
228.0956573231141
226.68653311671144
225.91463163739616
225.51221717066653
225.31312100246603
225.22124187456808
225.1854977372335
225.1827539561219
225.2082374244147
225.27235822230867
225.4032273020967
225.65486109578362
226.12172654934852
226.96042686539406
228.41864289747818
230.8695793890592
234.84691828867003
241.07127661640908
250.45519547598116
264.07230409550846
283.07913354887904
308.58617804059304
341.4852837279436
382.23922439914844
430.0807537236261
