# vtk DataFile Version 2.0
Unstructured Grid Example
ASCII
DATASET UNSTRUCTURED_GRID

POINTS 961 float
0.150000006 -0.00839745998 0
0.146666661 -0.00839745998 0
0.143333331 -0.00839745998 0
0.140000001 -0.00839745998 0
0.13666667 -0.00839745998 0
0.13333334 -0.00839745998 0
0.129999995 -0.00839745998 0
0.126666665 -0.00839745998 0
0.123333335 -0.00839745998 0
0.119999997 -0.00839745998 0
0.116666667 -0.00839745998 0
0.113333337 -0.00839745998 0
0.109999999 -0.00839745998 0
0.106666669 -0.00839745998 0
0.103333332 -0.00839745998 0
0.100000001 -0.00839745998 0
0.0966666639 -0.00839745998 0
0.0933333337 -0.00839745998 0
0.0900000036 -0.00839745998 0
0.086666666 -0.00839745998 0
0.0833333358 -0.00839745998 0
0.0799999982 -0.00839745998 0
0.0766666681 -0.00839745998 0
0.0733333305 -0.00839745998 0
0.0700000003 -0.00839745998 0
0.0666666701 -0.00839745998 0
0.0633333325 -0.00839745998 0
0.0599999987 -0.00839745998 0
0.0566666685 -0.00839745998 0
0.0533333346 -0.00839745998 0
0.0500000007 -0.00839745998 0
0.148333326 -0.0112842107 0
0.144999996 -0.0112842107 0
0.141666666 -0.0112842107 0
0.138333336 -0.0112842107 0
0.135000005 -0.0112842107 0
0.13166666 -0.0112842107 0
0.12833333 -0.0112842107 0
0.125 -0.0112842107 0
0.12166667 -0.0112842107 0
0.118333332 -0.0112842107 0
0.115000002 -0.0112842107 0
0.111666664 -0.0112842107 0
0.108333334 -0.0112842107 0
0.104999997 -0.0112842107 0
0.101666667 -0.0112842107 0
0.0983333364 -0.0112842107 0
0.0949999988 -0.0112842107 0
0.0916666687 -0.0112842107 0
0.088333331 -0.0112842107 0
0.0850000009 -0.0112842107 0
0.0816666633 -0.0112842107 0
0.0783333331 -0.0112842107 0
0.075000003 -0.0112842107 0
0.0716666654 -0.0112842107 0
0.0683333352 -0.0112842107 0
0.0649999976 -0.0112842107 0
0.0616666675 -0.0112842107 0
0.0583333336 -0.0112842107 0
0.0549999997 -0.0112842107 0
0.0516666658 -0.0112842107 0
0.0483333319 -0.0112842107 0
0.146666661 -0.0141709624 0
0.143333331 -0.0141709624 0
0.140000001 -0.0141709624 0
0.13666667 -0.0141709624 0
0.13333334 -0.0141709624 0
0.129999995 -0.0141709624 0
0.126666665 -0.0141709624 0
0.123333335 -0.0141709624 0
0.119999997 -0.0141709624 0
0.116666667 -0.0141709624 0
0.113333337 -0.0141709624 0
0.109999999 -0.0141709624 0
0.106666669 -0.0141709624 0
0.103333332 -0.0141709624 0
0.100000001 -0.0141709624 0
0.0966666639 -0.0141709624 0
0.0933333337 -0.0141709624 0
0.0900000036 -0.0141709624 0
0.086666666 -0.0141709624 0
0.0833333358 -0.0141709624 0
0.0799999982 -0.0141709624 0
0.0766666681 -0.0141709624 0
0.0733333305 -0.0141709624 0
0.0700000003 -0.0141709624 0
0.0666666701 -0.0141709624 0
0.0633333325 -0.0141709624 0
0.0599999987 -0.0141709624 0
0.0566666685 -0.0141709624 0
0.0533333346 -0.0141709624 0
0.0500000007 -0.0141709624 0
0.0466666669 -0.0141709624 0
0.144999996 -0.0170577131 0
0.141666666 -0.0170577131 0
0.138333336 -0.0170577131 0
0.135000005 -0.0170577131 0
0.13166666 -0.0170577131 0
0.12833333 -0.0170577131 0
0.125 -0.0170577131 0
0.12166667 -0.0170577131 0
0.118333332 -0.0170577131 0
0.115000002 -0.0170577131 0
0.111666664 -0.0170577131 0
0.108333334 -0.0170577131 0
0.104999997 -0.0170577131 0
0.101666667 -0.0170577131 0
0.0983333364 -0.0170577131 0
0.0949999988 -0.0170577131 0
0.0916666687 -0.0170577131 0
0.088333331 -0.0170577131 0
0.0850000009 -0.0170577131 0
0.0816666633 -0.0170577131 0
0.0783333331 -0.0170577131 0
0.075000003 -0.0170577131 0
0.0716666654 -0.0170577131 0
0.0683333352 -0.0170577131 0
0.0649999976 -0.0170577131 0
0.0616666675 -0.0170577131 0
0.0583333336 -0.0170577131 0
0.0549999997 -0.0170577131 0
0.0516666658 -0.0170577131 0
0.0483333319 -0.0170577131 0
0.0450000018 -0.0170577131 0
0.143333331 -0.0199444648 0
0.140000001 -0.0199444648 0
0.13666667 -0.0199444648 0
0.13333334 -0.0199444648 0
0.129999995 -0.0199444648 0
0.126666665 -0.0199444648 0
0.123333335 -0.0199444648 0
0.119999997 -0.0199444648 0
0.116666667 -0.0199444648 0
0.113333337 -0.0199444648 0
0.109999999 -0.0199444648 0
0.106666669 -0.0199444648 0
0.103333332 -0.0199444648 0
0.100000001 -0.0199444648 0
0.0966666639 -0.0199444648 0
0.0933333337 -0.0199444648 0
0.0900000036 -0.0199444648 0
0.086666666 -0.0199444648 0
0.0833333358 -0.0199444648 0
0.0799999982 -0.0199444648 0
0.0766666681 -0.0199444648 0
0.0733333305 -0.0199444648 0
0.0700000003 -0.0199444648 0
0.0666666701 -0.0199444648 0
0.0633333325 -0.0199444648 0
0.0599999987 -0.0199444648 0
0.0566666685 -0.0199444648 0
0.0533333346 -0.0199444648 0
0.0500000007 -0.0199444648 0
0.0466666669 -0.0199444648 0
0.043333333 -0.0199444648 0
0.141666666 -0.0228312165 0
0.138333336 -0.0228312165 0
0.135000005 -0.0228312165 0
0.13166666 -0.0228312165 0
0.12833333 -0.0228312165 0
0.125 -0.0228312165 0
0.12166667 -0.0228312165 0
0.118333332 -0.0228312165 0
0.115000002 -0.0228312165 0
0.111666664 -0.0228312165 0
0.108333334 -0.0228312165 0
0.104999997 -0.0228312165 0
0.101666667 -0.0228312165 0
0.0983333364 -0.0228312165 0
0.0949999988 -0.0228312165 0
0.0916666687 -0.0228312165 0
0.088333331 -0.0228312165 0
0.0850000009 -0.0228312165 0
0.0816666633 -0.0228312165 0
0.0783333331 -0.0228312165 0
0.075000003 -0.0228312165 0
0.0716666654 -0.0228312165 0
0.0683333352 -0.0228312165 0
0.0649999976 -0.0228312165 0
0.0616666675 -0.0228312165 0
0.0583333336 -0.0228312165 0
0.0549999997 -0.0228312165 0
0.0516666658 -0.0228312165 0
0.0483333319 -0.0228312165 0
0.0450000018 -0.0228312165 0
0.0416666679 -0.0228312165 0
0.140000001 -0.0257179681 0
0.13666667 -0.0257179681 0
0.13333334 -0.0257179681 0
0.129999995 -0.0257179681 0
0.126666665 -0.0257179681 0
0.123333335 -0.0257179681 0
0.119999997 -0.0257179681 0
0.116666667 -0.0257179681 0
0.113333337 -0.0257179681 0
0.109999999 -0.0257179681 0
0.106666669 -0.0257179681 0
0.103333332 -0.0257179681 0
0.100000001 -0.0257179681 0
0.0966666639 -0.0257179681 0
0.0933333337 -0.0257179681 0
0.0900000036 -0.0257179681 0
0.086666666 -0.0257179681 0
0.0833333358 -0.0257179681 0
0.0799999982 -0.0257179681 0
0.0766666681 -0.0257179681 0
0.0733333305 -0.0257179681 0
0.0700000003 -0.0257179681 0
0.0666666701 -0.0257179681 0
0.0633333325 -0.0257179681 0
0.0599999987 -0.0257179681 0
0.0566666685 -0.0257179681 0
0.0533333346 -0.0257179681 0
0.0500000007 -0.0257179681 0
0.0466666669 -0.0257179681 0
0.043333333 -0.0257179681 0
0.0399999991 -0.0257179681 0
0.138333336 -0.0286047198 0
0.135000005 -0.0286047198 0
0.13166666 -0.0286047198 0
0.12833333 -0.0286047198 0
0.125 -0.0286047198 0
0.12166667 -0.0286047198 0
0.118333332 -0.0286047198 0
0.115000002 -0.0286047198 0
0.111666664 -0.0286047198 0
0.108333334 -0.0286047198 0
0.104999997 -0.0286047198 0
0.101666667 -0.0286047198 0
0.0983333364 -0.0286047198 0
0.0949999988 -0.0286047198 0
0.0916666687 -0.0286047198 0
0.088333331 -0.0286047198 0
0.0850000009 -0.0286047198 0
0.0816666633 -0.0286047198 0
0.0783333331 -0.0286047198 0
0.075000003 -0.0286047198 0
0.0716666654 -0.0286047198 0
0.0683333352 -0.0286047198 0
0.0649999976 -0.0286047198 0
0.0616666675 -0.0286047198 0
0.0583333336 -0.0286047198 0
0.0549999997 -0.0286047198 0
0.0516666658 -0.0286047198 0
0.0483333319 -0.0286047198 0
0.0450000018 -0.0286047198 0
0.0416666679 -0.0286047198 0
0.038333334 -0.0286047198 0
0.13666667 -0.0314914696 0
0.13333334 -0.0314914696 0
0.129999995 -0.0314914696 0
0.126666665 -0.0314914696 0
0.123333335 -0.0314914696 0
0.119999997 -0.0314914696 0
0.116666667 -0.0314914696 0
0.113333337 -0.0314914696 0
0.109999999 -0.0314914696 0
0.106666669 -0.0314914696 0
0.103333332 -0.0314914696 0
0.100000001 -0.0314914696 0
0.0966666639 -0.0314914696 0
0.0933333337 -0.0314914696 0
0.0900000036 -0.0314914696 0
0.086666666 -0.0314914696 0
0.0833333358 -0.0314914696 0
0.0799999982 -0.0314914696 0
0.0766666681 -0.0314914696 0
0.0733333305 -0.0314914696 0
0.0700000003 -0.0314914696 0
0.0666666701 -0.0314914696 0
0.0633333325 -0.0314914696 0
0.0599999987 -0.0314914696 0
0.0566666685 -0.0314914696 0
0.0533333346 -0.0314914696 0
0.0500000007 -0.0314914696 0
0.0466666669 -0.0314914696 0
0.043333333 -0.0314914696 0
0.0399999991 -0.0314914696 0
0.0366666652 -0.0314914696 0
0.135000005 -0.0343782231 0
0.13166666 -0.0343782231 0
0.12833333 -0.0343782231 0
0.125 -0.0343782231 0
0.12166667 -0.0343782231 0
0.118333332 -0.0343782231 0
0.115000002 -0.0343782231 0
0.111666664 -0.0343782231 0
0.108333334 -0.0343782231 0
0.104999997 -0.0343782231 0
0.101666667 -0.0343782231 0
0.0983333364 -0.0343782231 0
0.0949999988 -0.0343782231 0
0.0916666687 -0.0343782231 0
0.088333331 -0.0343782231 0
0.0850000009 -0.0343782231 0
0.0816666633 -0.0343782231 0
0.0783333331 -0.0343782231 0
0.075000003 -0.0343782231 0
0.0716666654 -0.0343782231 0
0.0683333352 -0.0343782231 0
0.0649999976 -0.0343782231 0
0.0616666675 -0.0343782231 0
0.0583333336 -0.0343782231 0
0.0549999997 -0.0343782231 0
0.0516666658 -0.0343782231 0
0.0483333319 -0.0343782231 0
0.0450000018 -0.0343782231 0
0.0416666679 -0.0343782231 0
0.038333334 -0.0343782231 0
0.0350000001 -0.0343782231 0
0.13333334 -0.0372649729 0
0.129999995 -0.0372649729 0
0.126666665 -0.0372649729 0
0.123333335 -0.0372649729 0
0.119999997 -0.0372649729 0
0.116666667 -0.0372649729 0
0.113333337 -0.0372649729 0
0.109999999 -0.0372649729 0
0.106666669 -0.0372649729 0
0.103333332 -0.0372649729 0
0.100000001 -0.0372649729 0
0.0966666639 -0.0372649729 0
0.0933333337 -0.0372649729 0
0.0900000036 -0.0372649729 0
0.086666666 -0.0372649729 0
0.0833333358 -0.0372649729 0
0.0799999982 -0.0372649729 0
0.0766666681 -0.0372649729 0
0.0733333305 -0.0372649729 0
0.0700000003 -0.0372649729 0
0.0666666701 -0.0372649729 0
0.0633333325 -0.0372649729 0
0.0599999987 -0.0372649729 0
0.0566666685 -0.0372649729 0
0.0533333346 -0.0372649729 0
0.0500000007 -0.0372649729 0
0.0466666669 -0.0372649729 0
0.043333333 -0.0372649729 0
0.0399999991 -0.0372649729 0
0.0366666652 -0.0372649729 0
0.0333333351 -0.0372649729 0
0.13166666 -0.0401517227 0
0.12833333 -0.0401517227 0
0.125 -0.0401517227 0
0.12166667 -0.0401517227 0
0.118333332 -0.0401517227 0
0.115000002 -0.0401517227 0
0.111666664 -0.0401517227 0
[...]
POINT_DATA 961
SCALARS Temp float 1
LOOKUP_TABLE default
351.15036710197097
300.7881812799924
261.1186620298751
233.08557500200328
214.73237259772264
203.54663690621166
197.17069299253126
193.7546514802934
192.02531119523383
191.19380539557648
190.81221021481602
190.64431568008902
190.57320359958374
190.54410685437665
190.53257002290934
190.5281259928687
190.52647392298974
190.52593120455467
190.52598021560755
190.52686528138761
190.53016140430418
190.54104923737015
190.57481041480554
190.6730557346681
190.93970929079438
191.61038963706955
193.1638620566123
196.45994026530582
202.84306780584393
214.12028031870503
232.77680980236545
302.9224079402604
254.68190605359385
219.34254551536478
195.14123211590214
179.71425745801434
170.52945968123007
165.40044358932226
162.7011203215987
161.35560142524253
160.71725164544748
160.42768701147764
160.30156605849706
160.24862292929208
160.22713059762756
160.21866839242247
160.21543916051556
160.21426823593487
160.21397949055446
160.214376367992
160.21626462055568
160.22272678117707
160.24319822500723
160.3041465463368
160.47392873464077
160.91384922806697
161.96760878458946
164.28815748321065
168.96543102588802
177.57020153434047
192.02204784132653
213.55817710167327
264.91350152451963
220.99470621908287
189.38342448826597
168.09477112660443
154.67987071866528
146.75388290355352
142.34806517259327
140.03446045940169
138.88172637330888
138.3344255264955
138.0857805182718
137.97726620253894
137.9316149945315
137.91304092139225
137.90571627127935
137.9029229568714
137.90194959249678
137.90186349590064
137.90277693143398
137.90629077280747
137.91772673912723
137.952522975218
138.05185289864554
138.31661493178237
138.9718088557792
140.46890894529875
143.61256691555158
149.65607240027813
160.26374973407073
177.16632133804828
201.96399017312356
237.88846668925595
197.8810494570985
169.23819241273543
149.9935111285782
137.85892998061627
130.66825532853875
126.65333716743366
124.53392992680887
123.47212992622156
122.96527841138766
122.7338360718198
122.6323633520274
122.58949575747424
122.57199125079194
122.56507161086361
122.56244312030401
122.56159198165366
122.56175812727466
122.56345549944125
122.56938259884254
122.58785707341872
122.64181248479733
122.78944133471853
123.16611571868116
124.05779801720695
126.0071926358863
129.9277783473544
137.16009169289208
149.37203099557757
168.31930310887998
195.42106186556518
219.98691106224572
183.07198118260771
156.54646582225524
138.6235042267579
127.24629584202042
120.45698585376016
116.64037432785241
114.61307859430626
113.59183418455049
113.10202613587823
112.87746619623942
112.77867944480492
112.73682913924962
112.7197032069699
112.71292536702028
112.71037524228086
112.70964748038001
112.71017139032375
112.71297391732286
112.72215318588731
112.74959646123699
112.82651844885527
113.02839749792676
113.52238014007605
114.64462905324676
117.00317338920779
121.57544304949056
129.7370756637465
143.15848794179934
163.51693248652404
192.0606441192338
208.9036349520767
174.19213939549206
149.04551661579512
131.91293572150656
120.95407052830055
114.37065301936478
110.64906276446405
108.6632086374997
107.65917791261559
107.17622340656959
106.95430009557283
106.85649559863488
106.81500334985793
106.79800802913104
106.79128764713337
106.78879929054976
106.78822707134324
106.78923163674165
106.79345649470042
106.80660013981685
106.84433351986591
106.94596387695016
107.20235589209184
107.80611356912415
109.12892545874983
111.81833160172246
116.88238167918017
125.70570328303502
139.92715981728378
161.1424561229624
190.48993581314653
202.4705728154913
169.19375885340366
144.87520462460805
128.18252959989482
117.44039266111244
110.95673899214509
107.27838696526567
105.3103293751152
104.31329565550922
103.83299018639757
103.61203893754839
103.51458168578999
103.47321263495436
103.45626333528348
103.44957578513473
103.44715462829036
103.44678198107856
103.44837973257894
103.45427036365395
103.47178645354568
103.52016413004044
103.64568998961511
103.95123265725762
104.64711624648368
106.12658598346636
109.05702372379787
114.45656025651473
123.7002414977562
138.39140869278327
160.0704230752772
189.81950204601526
198.95757009086665
166.54251818202053
142.68601905351514
126.22267257505473
115.58642648826742
109.1486556249451
105.48908956404371
103.52835798085685
102.53406096840345
102.05474647433022
101.83414180330712
101.7368043410658
101.69547737126402
101.6785487761744
101.67189065559963
101.6695489736564
101.66941335371823
101.67167995179553
101.67934228237532
101.7012230209775
101.75954455935764
101.90590201798211
102.25136633127443
103.01693774533118
104.60687971019543
107.69601252223848
113.30125178392402
122.78389528404922
137.72196810958434
159.62649116594483
189.5566898982405
197.14536655803352
165.21169440181643
141.59659450465224
125.24577255996452
114.65856815729698
108.24090699052289
104.58917935828859
102.63135438595056
101.63809446984133
101.15913893319609
100.93865499979891
100.84135832174411
100.80004676867613
100.78313187578132
100.7765051240208
100.77425458268135
100.77437713157782
100.77733202025814
100.78670688395826
100.81253788201975
100.87926648179824
101.04204771014909
101.41684241898997
102.23013825893881
103.89061970709962
107.07410391723259
112.79291808985292
122.3978507552408
137.45307910796103
159.4569665711811
189.4614978710049
196.25851361119993
164.57658530721608
141.08040693465338
124.7819013933367
114.21633164591067
107.80711729560419
104.15852805441956
102.20181387745917
101.20893883357535
100.7301091154977
100.50966719359914
100.41238465737014
100.37108079262735
100.35417852970167
100.34758573963705
100.34543146364655
100.34581155320849
100.34941229577615
100.36029294500106
100.38937202612657
100.46255228623092
100.63708599999234
101.0314445927503
101.87441042815118
103.57573157252361
106.80999360397809
112.58555556337153
122.24720966119972
137.35297003223434
159.39683353138648
189.4293538659094
195.8449586271801
164.28730249699873
140.84654033340746
124.57120898664706
114.01475536536398
107.60897529502088
103.96160280317808
102.00530317491265
101.01256588359476
100.53378014381087
100.31335278996184
100.21607601249973
100.17477807455634
100.157888744832
100.15133106636252
100.14927031956034
100.14988576709318
100.15403983077482
100.16612747458679
100.19763860424843
100.27532640173116
100.45751702039885
100.86375842842
101.72350763038648
103.44632109498399
106.7054257885428
112.50680112278503
122.19250105759286
137.3182565687978
159.3769455555015
189.41919670375418
195.66028081421294
164.16095102892095
140.74482305998427
124.47932144749758
113.92657392026364
107.52212755906288
103.87520561394388
101.91906389403638
100.92637401942103
100.44760597449071
100.22718500946894
100.12991244391192
100.08862071302575
100.0717449638219
100.06522127152111
100.06324440941347
100.06405710436812
100.0686447332917
100.08161633130915
100.11479046269899
100.19535416875775
100.3820998300225
100.79492836935275
101.66334289925295
103.39648307847959
106.66670095276024
112.47883597570188
122.1739003980722
137.3069613435401
159.37074786458686
189.41621296348023
195.5811849985899
164.10784526376094
140.70220708301028
124.44067801974987
113.88941452526123
107.48547148021578
103.83871516140007
101.88262952842811
100.88995857424452
100.41119952303342
100.19078461612519
100.09351882331693
100.05223573510295
100.03537506747048
100.02888300698795
100.02697633915018
100.02794136188109
100.03284075095435
100.0464054134881
100.08062083127012
100.16286434534763
100.3520915151291
100.76826342325774
101.64077496128327
103.37846600458408
106.65325337699294
112.4695379426701
122.16798755570262
137.30353808149883
159.3689455644311
189.41541070906032
195.54847296808325
164.08626665287238
140.6849371324401
124.42498536552392
113.8742806505305
107.47051549786485
103.82383752852694
101.86777637242172
100.87512519368215
100.39638071741716
100.17598000960845
100.07872888254664
100.03746133316831
100.0206201594838
100.01415853105927
100.01230831566853
100.01338303186391
100.01848926213815
100.03241981882192
100.06723423973101
100.15037884796243
100.34084736392742
100.75858017539679
101.63287638082448
103.37242017670997
106.64894664271318
112.46671285047582
122.16630434794008
137.30265135402067
159.3686026643454
189.41536949069024
195.5354085074879
164.07779521910447
140.67812413237186
124.4188280860544
113.86833816739762
107.46465174893574
103.81801827949573
101.86199129203894
100.86937636100824
100.39066939007803
100.17030758024744
100.07309256264854
100.03185791611577
100.01504778472723
100.00862016432097
100.00681683906475
100.00796755661295
100.01320201147743
100.0273413700411
100.0624733861163
100.14606363179215
100.33710464637615
100.75550946891163
101.63052423469006
103.37076635401651
106.64791500448646
112.4661798879635
122.16613901416662
137.30272255435068
159.36886949570916
189.41585265938522
195.5303370844786
164.0745711774668
140.6755693745082
124.41652958945365
113.86613458747799
107.4625500912847
103.81599381553269
101.86006639188932
100.86755451145328
100.38895271007506
100.16869125030661
100.07156437348323
100.03040265928082
100.01365028785501
100.00727013004305
100.00551220226065
100.00671747928631
100.01202864820245
100.02627976006283
100.06156813440018
100.14536232782824
100.33664843810327
100.75532248445892
101.63060764449456
103.37109563532907
106.64845064285089
112.46687562646824
122.16695471766614
137.30366886522262
159.36995886922554
189.41735103650242
195.5284876847411
164.0734014617998
140.67476986936984
124.41590546097683
113.86566850188552
107.46227982699688
103.81595638661
101.86029728461077
100.86806811683522
100.38974461323689
100.16973141391733
100.07280955955234
100.0318046063688
100.01516427389558
100.00886133845971
100.00715851845887
100.00840965747909
100.01376860235104
100.02807764044557
100.0634386129755
100.14731991025154
100.33870344496552
100.7574777716698
101.63285735888108
103.37343016276735
106.65085412973798
112.46933876468546
122.16947553146207
137.3063283026702
159.37297449668813
189.42135383411147
195.52796547875627
164.0732748664483
140.67494697202903
124.41639637245254
113.8666435975688
107.46381772167558
103.81818337032543
101.8632651407425
100.87177756869258
100.39413688817854
100.17469937030158
100.07822444939937
100.03753833875075
100.02110889138454
100.0149365422179
100.01331183784306
100.01461144815158
100.02000542583104
100.03434595410461
100.06973978686244
100.15365661599495
100.34507695443142
100.76388712871662
101.63929848825931
103.37989993288332
106.65735392438869
112.47588573516751
122.17615264383316
137.31331698386305
159.38090148577496
189.4318148310158
195.52825283488238
164.07418098343808
140.67657771648942
124.41903035388188
113.87061842828648
107.46943207042365
103.82565096800313
101.87264639959268
100.8829746575714
100.40690302918902
100.18870898922012
100.09313836741407
100.05305679225215
100.0370002500565
100.03104126662548
100.02953124965504
100.03089056333232
100.03631682412728
100.05067765491926
100.08608724590185
100.17001829548748
100.36145204944933
100.78027482277275
101.65570058540496
103.3963211814303
106.67381544199128
112.49244759562555
122.19302376620332
137.33106322120116
159.40104813860378
189.4582784938902
195.53021361837745
164.07759946325473
140.68208930569517
124.42755429541315
113.88291015946737
107.48617371518846
103.84713438365966
101.89875525945693
100.91320206003972
100.44047614735146
100.22477004693393
100.13089375648428
100.09187317604639
100.0764286817968
100.07079625806129
100.06944839696513
100.07088362159506
100.07634445092519
100.09072169385199
100.12614040815406
100.21007784604281
100.40151734899712
100.82034666503479
101.69578502593663
103.43643882523271
106.71402983996202
112.53295786502086
122.2343499493767
137.3746817174152
159.45071270366685
189.5231787112255
195.53662503033752
164.08833616986973
140.69905662546253
124.45281971639454
113.91826499229057
107.53272631793085
103.90498394035326
101.966982039765
100.9900903763573
100.52395958215905
100.31284416307386
100.2218959063168
100.18459130398372
100.1700731621079
100.16490300331759
100.16376932561148
100.16529734702125
100.17079632069353
100.18518898238096
100.22061445811589
100.3045560558764
100.49600065655332
100.91484224486096
101.79031393174142
103.53106520335523
106.80893529445241
112.62866788640824
122.33227110543372
137.47844496344348
159.56923369969763
189.67709645324325
195.55610884925093
164.12006748265475
140.7479583897902
124.52340628174741
114.01395450366839
107.65467977004197
104.05186041269407
102.13531148521695
101.17519702930234
100.72102738200255
100.51770208178185
100.43140387976553
100.39664875805184
100.38341856299283
100.37885015346554
100.3779775585148
100.3796114654471
100.38515099121764
100.39955877368624
100.43499071787238
100.51893792787713
100.71039424724042
101.12926924625637
102.00483882758654
103.74587229449232
107.02454295351934
112.84644225545141
122.55577019278691
137.71637563602474
159.84184846599902
190.0286554068707
195.61199997851708
164.20895202899354
140.88069133081353
124.70902802329978
114.25727975958597
107.95483268528761
104.40259591846178
102.52679053714432
101.59649261484854
101.16220833315984
100.9710001086611
100.89146525834913
100.86017803699235
100.84858761601947
100.84473736609709
100.844157447684
100.84590296641292
100.85148294047555
100.86590567546565
100.90134603842948
100.98530657022866
101.17679893919949
101.59577710534505
102.47163976064815
104.21348412049886
107.4943465045145
113.32195929054411
123.04560959466293
138.24054042236435
160.4441340379295
190.79879345700755
195.7625525958132
164.4421014412286
141.21818056553346
125.1656421267497
114.83609436438105
108.64644409960978
105.18810347927969
103.38304626416799
102.50119438613373
102.09713039446086
101.92313784797578
101.85258375272312
101.82560335048261
101.8159205561623
101.81285431751294
101.8125753852965
101.81442981170169
101.82004801850691
101.83448703477441
101.86994426453121
101.95394480652737
102.14554924187058
102.5648409041278
103.4415602944498
105.1856841569917
108.47240061239555
114.3145394011305
124.07271336050812
139.3458540689574
161.71720406041257
192.41019385684982
196.14290888445083
165.01354697529277
142.0185920209828
126.21193269453344
116.11878054817554
110.13316050401896
106.83358358937117
105.14047783141933
104.33036151807356
103.9681256857124
103.81638999784005
103.75668623738672
103.7345766557462
103.72691850552785
103.7246357437249
103.7246408168034
103.7265936582808
103.73224824498033
103.74671181370972
103.78221523918465
103.86633978035633
104.05828628385115
104.47850199857928
105.35764548696625
107.10792684974929
110.4097165376717
116.28727289711664
126.12493412169948
141.56746700010646
164.27943066410978
195.61402194838698
197.03719917492145
166.31464863632894
143.77923585270457
128.43484219285872
118.756732480441
113.10566390623362
110.04983179806307
108.51777768679523
107.80411662204695
107.49438749558577
107.3687432345404
107.32093824503829
107.30383851881079
107.29813851149608
107.29657186930815
107.29682497871836
107.29886315458472
107.30455889086757
107.31907770105701
107.3547197748772
107.43922131241253
107.6321770899413
108.05501717457611
108.94075935020452
110.70701281370476
114.04590422949661
120.00576260262568
130.01698769091644
145.8056334129992
169.1662579604686
201.63543889387762
198.98486824752618
169.05340714889604
147.35527537824078
132.79608507350576
123.77508050766703
118.6200595198633
115.90380303233884
114.58150191340654
113.98503592161562
113.73483772591906
113.63684713477815
113.60086553730028
113.58844941294753
113.58447915113275
113.58351271861955
113.58396771458204
113.58608553115275
113.591853173286
113.60652862420908
113.64258667596438
113.72819394375871
113.92400735087394
114.35398422704039
115.25687446485296
117.06260625299053
120.48819887560302
126.62887973120776
136.99657458499297
153.44634275371735
177.95442586089766
212.27562817049613
202.89695338124864
174.36110752034085
154.0370342920594
140.67241412140314
132.5860618537228
128.09861045247845
125.80954836685336
124.73308521839799
124.26467044918921
124.0752475286117
124.00371964242906
123.97838295162823
123.96994713482053
123.96737306988501
123.96687460336184
123.96749397418183
123.96971381231549
123.97565987288868
123.99079410776525
124.02806099434866
124.11677514125094
124.32030912761309
124.76874536805045
125.7139040870107
127.61188153050558
131.22835420017302
137.74166300978553
148.79223077669693
166.411452545731
192.78393879409734
229.8613418500599
210.1238018559101
183.8078602542143
165.48899000016021
153.73320294223686
146.86241201040326
143.18437596472882
141.37654833860293
140.5578926146832
140.2148843427362
140.08124821120526
140.03258052937207
140.01593526749267
140.01058717351032
140.00904939859018
140.0088985601571
140.00968175442225
140.0121131477675
140.01856467391872
140.0350123839603
140.07563643138897
140.1726560090372
140.39597190232604
140.88954172998342
141.93284795944746
144.0331159477733
148.04245395605778
155.27038853733217
167.5312011629695
187.0474024006931
216.1637971891813
256.91548149700617
222.40272452818346
199.25428214877266
183.38922469558668
173.67971825617258
168.22842177913034
165.42326274106904
164.09752311398435
163.51996855784571
163.28693018433256
163.19936665377202
163.16855931097714
163.15836259092725
163.15520715136782
163.15439530942297
163.1545286402458
163.1555727637064
163.1585602031332
163.16643296268427
163.18648668927895
163.23598273377044
163.35403631312118
163.62516679057651
164.22242270224166
165.47897704257187
167.99261418237282
172.75218336509184
181.24597695903614
195.47708424719463
217.79475090037673
250.481893632921
295.4615566555708
242.0885077067783
221.8381533519948
209.22392161189885
201.81507577119973
197.82118287258297
195.846637807954
194.9492085523065
194.57269135825257
194.42610756483214
194.37285466181413
194.35470467085872
194.34888356772973
194.3471759078162
194.34687929037614
194.34735930479465
194.34902354031263
194.35354361420133
194.3652665814029
194.3947318480543
194.4664205839447
194.63469285306914
195.01432467302112
195.83417288362267
197.52163128694178
200.81705689239914
206.89619764784857
217.44556124666624
234.60445824814235
260.68329536678095
297.5950304582752
344.6512186124307
