# vtk DataFile Version 2.0
Unstructured Grid Example
ASCII
DATASET UNSTRUCTURED_GRID

POINTS 961 float
0.150000006 -0.00839745998 0
0.146666661 -0.00839745998 0
0.143333331 -0.00839745998 0
0.140000001 -0.00839745998 0
0.13666667 -0.00839745998 0
0.13333334 -0.00839745998 0
0.129999995 -0.00839745998 0
0.126666665 -0.00839745998 0
0.123333335 -0.00839745998 0
0.119999997 -0.00839745998 0
0.116666667 -0.00839745998 0
0.113333337 -0.00839745998 0
0.109999999 -0.00839745998 0
0.106666669 -0.00839745998 0
0.103333332 -0.00839745998 0
0.100000001 -0.00839745998 0
0.0966666639 -0.00839745998 0
0.0933333337 -0.00839745998 0
0.0900000036 -0.00839745998 0
0.086666666 -0.00839745998 0
0.0833333358 -0.00839745998 0
0.0799999982 -0.00839745998 0
0.0766666681 -0.00839745998 0
0.0733333305 -0.00839745998 0
0.0700000003 -0.00839745998 0
0.0666666701 -0.00839745998 0
0.0633333325 -0.00839745998 0
0.0599999987 -0.00839745998 0
0.0566666685 -0.00839745998 0
0.0533333346 -0.00839745998 0
0.0500000007 -0.00839745998 0
0.148333326 -0.0112842107 0
0.144999996 -0.0112842107 0
0.141666666 -0.0112842107 0
0.138333336 -0.0112842107 0
0.135000005 -0.0112842107 0
0.13166666 -0.0112842107 0
0.12833333 -0.0112842107 0
0.125 -0.0112842107 0
0.12166667 -0.0112842107 0
0.118333332 -0.0112842107 0
0.115000002 -0.0112842107 0
0.111666664 -0.0112842107 0
0.108333334 -0.0112842107 0
0.104999997 -0.0112842107 0
0.101666667 -0.0112842107 0
0.0983333364 -0.0112842107 0
0.0949999988 -0.0112842107 0
0.0916666687 -0.0112842107 0
0.088333331 -0.0112842107 0
0.0850000009 -0.0112842107 0
0.0816666633 -0.0112842107 0
0.0783333331 -0.0112842107 0
0.075000003 -0.0112842107 0
0.0716666654 -0.0112842107 0
0.0683333352 -0.0112842107 0
0.0649999976 -0.0112842107 0
0.0616666675 -0.0112842107 0
0.0583333336 -0.0112842107 0
0.0549999997 -0.0112842107 0
0.0516666658 -0.0112842107 0
0.0483333319 -0.0112842107 0
0.146666661 -0.0141709624 0
0.143333331 -0.0141709624 0
0.140000001 -0.0141709624 0
0.13666667 -0.0141709624 0
0.13333334 -0.0141709624 0
0.129999995 -0.0141709624 0
0.126666665 -0.0141709624 0
0.123333335 -0.0141709624 0
0.119999997 -0.0141709624 0
0.116666667 -0.0141709624 0
0.113333337 -0.0141709624 0
0.109999999 -0.0141709624 0
0.106666669 -0.0141709624 0
0.103333332 -0.0141709624 0
0.100000001 -0.0141709624 0
0.0966666639 -0.0141709624 0
0.0933333337 -0.0141709624 0
0.0900000036 -0.0141709624 0
0.086666666 -0.0141709624 0
0.0833333358 -0.0141709624 0
0.0799999982 -0.0141709624 0
0.0766666681 -0.0141709624 0
0.0733333305 -0.0141709624 0
0.0700000003 -0.0141709624 0
0.0666666701 -0.0141709624 0
0.0633333325 -0.0141709624 0
0.0599999987 -0.0141709624 0
0.0566666685 -0.0141709624 0
0.0533333346 -0.0141709624 0
0.0500000007 -0.0141709624 0
0.0466666669 -0.0141709624 0
0.144999996 -0.0170577131 0
0.141666666 -0.0170577131 0
0.138333336 -0.0170577131 0
0.135000005 -0.0170577131 0
0.13166666 -0.0170577131 0
0.12833333 -0.0170577131 0
0.125 -0.0170577131 0
0.12166667 -0.0170577131 0
0.118333332 -0.0170577131 0
0.115000002 -0.0170577131 0
0.111666664 -0.0170577131 0
0.108333334 -0.0170577131 0
0.104999997 -0.0170577131 0
0.101666667 -0.0170577131 0
0.0983333364 -0.0170577131 0
0.0949999988 -0.0170577131 0
0.0916666687 -0.0170577131 0
0.088333331 -0.0170577131 0
0.0850000009 -0.0170577131 0
0.0816666633 -0.0170577131 0
0.0783333331 -0.0170577131 0
0.075000003 -0.0170577131 0
0.0716666654 -0.0170577131 0
0.0683333352 -0.0170577131 0
0.0649999976 -0.0170577131 0
0.0616666675 -0.0170577131 0
0.0583333336 -0.0170577131 0
0.0549999997 -0.0170577131 0
0.0516666658 -0.0170577131 0
0.0483333319 -0.0170577131 0
0.0450000018 -0.0170577131 0
0.143333331 -0.0199444648 0
0.140000001 -0.0199444648 0
0.13666667 -0.0199444648 0
0.13333334 -0.0199444648 0
0.129999995 -0.0199444648 0
0.126666665 -0.0199444648 0
0.123333335 -0.0199444648 0
0.119999997 -0.0199444648 0
0.116666667 -0.0199444648 0
0.113333337 -0.0199444648 0
0.109999999 -0.0199444648 0
0.106666669 -0.0199444648 0
0.103333332 -0.0199444648 0
0.100000001 -0.0199444648 0
0.0966666639 -0.0199444648 0
0.0933333337 -0.0199444648 0
0.0900000036 -0.0199444648 0
0.086666666 -0.0199444648 0
0.0833333358 -0.0199444648 0
0.0799999982 -0.0199444648 0
0.0766666681 -0.0199444648 0
0.0733333305 -0.0199444648 0
0.0700000003 -0.0199444648 0
0.0666666701 -0.0199444648 0
0.0633333325 -0.0199444648 0
0.0599999987 -0.0199444648 0
0.0566666685 -0.0199444648 0
0.0533333346 -0.0199444648 0
0.0500000007 -0.0199444648 0
0.0466666669 -0.0199444648 0
0.043333333 -0.0199444648 0
0.141666666 -0.0228312165 0
0.138333336 -0.0228312165 0
0.135000005 -0.0228312165 0
0.13166666 -0.0228312165 0
0.12833333 -0.0228312165 0
0.125 -0.0228312165 0
0.12166667 -0.0228312165 0
0.118333332 -0.0228312165 0
0.115000002 -0.0228312165 0
0.111666664 -0.0228312165 0
0.108333334 -0.0228312165 0
0.104999997 -0.0228312165 0
0.101666667 -0.0228312165 0
0.0983333364 -0.0228312165 0
0.0949999988 -0.0228312165 0
0.0916666687 -0.0228312165 0
0.088333331 -0.0228312165 0
0.0850000009 -0.0228312165 0
0.0816666633 -0.0228312165 0
0.0783333331 -0.0228312165 0
0.075000003 -0.0228312165 0
0.0716666654 -0.0228312165 0
0.0683333352 -0.0228312165 0
0.0649999976 -0.0228312165 0
0.0616666675 -0.0228312165 0
0.0583333336 -0.0228312165 0
0.0549999997 -0.0228312165 0
0.0516666658 -0.0228312165 0
0.0483333319 -0.0228312165 0
0.0450000018 -0.0228312165 0
0.0416666679 -0.0228312165 0
0.140000001 -0.0257179681 0
0.13666667 -0.0257179681 0
0.13333334 -0.0257179681 0
0.129999995 -0.0257179681 0
0.126666665 -0.0257179681 0
0.123333335 -0.0257179681 0
0.119999997 -0.0257179681 0
0.116666667 -0.0257179681 0
0.113333337 -0.0257179681 0
0.109999999 -0.0257179681 0
0.106666669 -0.0257179681 0
0.103333332 -0.0257179681 0
0.100000001 -0.0257179681 0
0.0966666639 -0.0257179681 0
0.0933333337 -0.0257179681 0
0.0900000036 -0.0257179681 0
0.086666666 -0.0257179681 0
0.0833333358 -0.0257179681 0
0.0799999982 -0.0257179681 0
0.0766666681 -0.0257179681 0
0.0733333305 -0.0257179681 0
0.0700000003 -0.0257179681 0
0.0666666701 -0.0257179681 0
0.0633333325 -0.0257179681 0
0.0599999987 -0.0257179681 0
0.0566666685 -0.0257179681 0
0.0533333346 -0.0257179681 0
0.0500000007 -0.0257179681 0
0.0466666669 -0.0257179681 0
0.043333333 -0.0257179681 0
0.0399999991 -0.0257179681 0
0.138333336 -0.0286047198 0
0.135000005 -0.0286047198 0
0.13166666 -0.0286047198 0
0.12833333 -0.0286047198 0
0.125 -0.0286047198 0
0.12166667 -0.0286047198 0
0.118333332 -0.0286047198 0
0.115000002 -0.0286047198 0
0.111666664 -0.0286047198 0
0.108333334 -0.0286047198 0
0.104999997 -0.0286047198 0
0.101666667 -0.0286047198 0
0.0983333364 -0.0286047198 0
0.0949999988 -0.0286047198 0
0.0916666687 -0.0286047198 0
0.088333331 -0.0286047198 0
0.0850000009 -0.0286047198 0
0.0816666633 -0.0286047198 0
0.0783333331 -0.0286047198 0
0.075000003 -0.0286047198 0
0.0716666654 -0.0286047198 0
0.0683333352 -0.0286047198 0
0.0649999976 -0.0286047198 0
0.0616666675 -0.0286047198 0
0.0583333336 -0.0286047198 0
0.0549999997 -0.0286047198 0
0.0516666658 -0.0286047198 0
0.0483333319 -0.0286047198 0
0.0450000018 -0.0286047198 0
0.0416666679 -0.0286047198 0
0.038333334 -0.0286047198 0
0.13666667 -0.0314914696 0
0.13333334 -0.0314914696 0
0.129999995 -0.0314914696 0
0.126666665 -0.0314914696 0
0.123333335 -0.0314914696 0
0.119999997 -0.0314914696 0
0.116666667 -0.0314914696 0
0.113333337 -0.0314914696 0
0.109999999 -0.0314914696 0
0.106666669 -0.0314914696 0
0.103333332 -0.0314914696 0
0.100000001 -0.0314914696 0
0.0966666639 -0.0314914696 0
0.0933333337 -0.0314914696 0
0.0900000036 -0.0314914696 0
0.086666666 -0.0314914696 0
0.0833333358 -0.0314914696 0
0.0799999982 -0.0314914696 0
0.0766666681 -0.0314914696 0
0.0733333305 -0.0314914696 0
0.0700000003 -0.0314914696 0
0.0666666701 -0.0314914696 0
0.0633333325 -0.0314914696 0
0.0599999987 -0.0314914696 0
0.0566666685 -0.0314914696 0
0.0533333346 -0.0314914696 0
0.0500000007 -0.0314914696 0
0.0466666669 -0.0314914696 0
0.043333333 -0.0314914696 0
0.0399999991 -0.0314914696 0
0.0366666652 -0.0314914696 0
0.135000005 -0.0343782231 0
0.13166666 -0.0343782231 0
0.12833333 -0.0343782231 0
0.125 -0.0343782231 0
0.12166667 -0.0343782231 0
0.118333332 -0.0343782231 0
0.115000002 -0.0343782231 0
0.111666664 -0.0343782231 0
0.108333334 -0.0343782231 0
0.104999997 -0.0343782231 0
0.101666667 -0.0343782231 0
0.0983333364 -0.0343782231 0
0.0949999988 -0.0343782231 0
0.0916666687 -0.0343782231 0
0.088333331 -0.0343782231 0
0.0850000009 -0.0343782231 0
0.0816666633 -0.0343782231 0
0.0783333331 -0.0343782231 0
0.075000003 -0.0343782231 0
0.0716666654 -0.0343782231 0
0.0683333352 -0.0343782231 0
0.0649999976 -0.0343782231 0
0.0616666675 -0.0343782231 0
0.0583333336 -0.0343782231 0
0.0549999997 -0.0343782231 0
0.0516666658 -0.0343782231 0
0.0483333319 -0.0343782231 0
0.0450000018 -0.0343782231 0
0.0416666679 -0.0343782231 0
0.038333334 -0.0343782231 0
0.0350000001 -0.0343782231 0
0.13333334 -0.0372649729 0
0.129999995 -0.0372649729 0
0.126666665 -0.0372649729 0
0.123333335 -0.0372649729 0
0.119999997 -0.0372649729 0
0.116666667 -0.0372649729 0
0.113333337 -0.0372649729 0
0.109999999 -0.0372649729 0
0.106666669 -0.0372649729 0
0.103333332 -0.0372649729 0
0.100000001 -0.0372649729 0
0.0966666639 -0.0372649729 0
0.0933333337 -0.0372649729 0
0.0900000036 -0.0372649729 0
0.086666666 -0.0372649729 0
0.0833333358 -0.0372649729 0
0.0799999982 -0.0372649729 0
0.0766666681 -0.0372649729 0
0.0733333305 -0.0372649729 0
0.0700000003 -0.0372649729 0
0.0666666701 -0.0372649729 0
0.0633333325 -0.0372649729 0
0.0599999987 -0.0372649729 0
0.0566666685 -0.0372649729 0
0.0533333346 -0.0372649729 0
0.0500000007 -0.0372649729 0
0.0466666669 -0.0372649729 0
0.043333333 -0.0372649729 0
0.0399999991 -0.0372649729 0
0.0366666652 -0.0372649729 0
0.0333333351 -0.0372649729 0
0.13166666 -0.0401517227 0
0.12833333 -0.0401517227 0
0.125 -0.0401517227 0
0.12166667 -0.0401517227 0
0.118333332 -0.0401517227 0
0.115000002 -0.0401517227 0
0.111666664 -0.0401517227 0
[...]
POINT_DATA 961
SCALARS Temp float 1
LOOKUP_TABLE default
422.73414790417434
374.6319231440795
333.9157989108409
301.3410796065567
276.36437074974714
257.99598294588617
245.03365196446921
236.25116180567014
230.5332710341691
226.9523948573676
224.7926139384271
223.53631320827148
222.83053371526665
222.44706449085493
222.24541196867864
222.14307031231868
222.0940753138982
222.0750696330893
222.0776569599078
222.1061506999916
222.18071280631486
222.34675867377996
222.6921222568277
223.37313352058518
224.64870812883828
226.9176695051379
230.74908843209133
236.89127782843667
246.2466176621488
259.8140835333862
278.8491588458842
374.63196214167135
328.00795949032624
290.00205993150286
260.1886394628173
237.74617962304774
221.531890766462
210.284739224783
202.78958293764674
197.98681575742077
195.02436348995556
193.26317532056237
192.25262435411375
191.69220055770737
191.3914557063452
191.23532567220062
191.15755655127555
191.12233136478972
191.1130230337528
191.12691093669133
191.1753597961554
191.28987033785845
191.5352549589886
192.03142283644405
192.98415636500027
194.7223078888495
197.73396484127042
202.68865608873668
210.43010972622315
221.92749641896657
238.19190210795878
259.81410353930664
333.91575632903755
290.0020398746856
254.69931610253408
227.39286852826848
207.08979589207217
192.58210917438063
182.61710259075392
176.0336333623174
171.84677360486228
169.28096030296228
167.76396486193565
166.89755113138963
166.41893011508813
166.1629971906508
166.0307886937561
165.96592524087328
165.93878735625776
165.93736930113525
165.96394901833725
166.03746075765514
166.2023253039176
166.54513669966866
167.2203365453344
168.48414142126535
170.7322024293189
174.5310485701635
180.62843059604833
189.92605512934531
203.40055160334936
221.92748717314905
246.2466280846299
301.3410235946391
260.1886093089085
227.39286926255764
202.21782699624396
183.61448462877436
170.38402680709646
161.3270911260586
155.35684198549333
151.5645443157322
149.24132639241847
147.86725293004451
147.08175068128406
146.64728234408628
146.41472783447145
146.29480469223284
146.23696629863466
146.21550103575035
146.2219982692076
146.2636576869285
146.36763128656693
146.5923753010744
147.04730596625546
147.92123849673794
149.51758980992346
152.28993649290572
156.86608136245556
164.044887533236
174.74965292084343
189.92607089153194
210.43012290047702
236.89126938883953
276.3643187977529
237.74615174638234
207.0897805450497
183.6145525746618
166.28622657428892
153.9614443963509
145.51557611663668
139.93807731314567
136.38693946733335
134.20553373091715
132.91154505869935
132.16960048227637
131.75805410054826
131.5373324494985
131.42374828301743
131.37020775670143
131.35369085391602
131.36896007639817
131.42824861088368
131.56732576533392
131.85895433989296
132.4347290322942
133.51498703937696
135.44351911456994
138.71918212833728
144.0116885047347
152.14628106871353
164.04488069732406
180.6284259071844
202.68865447218565
230.7490942876038
257.9959306648972
221.53192732532668
192.5821572439072
170.38399547231012
153.9614321498207
142.2468860602419
134.1927137698821
128.8553332059049
125.44513255976402
123.34312331570317
122.09219040758576
121.37279020128673
120.97274424112277
120.7579268371561
120.64782257417261
120.59747589888897
120.58595536368551
120.61103235452211
120.69000584895147
120.86717999950898
121.22889757031791
121.92668463585339
123.20743897566203
125.4463733541127
129.1739700617839
135.0843922584801
144.01168540603516
156.8660827203052
174.53105553390037
197.73394356497295
226.9176636894349
245.03366156548296
210.2847627515753
182.61714930070684
161.3270542991874
145.51556147127016
134.19270994542975
126.37826461714248
121.1813482453492
117.85009040152903
115.79075832338705
114.56208326315519
113.85394201039368
113.45952410212634
113.24771230854445
113.13980927137017
113.09231048796086
113.08607373504644
113.12174649721992
113.22149494259352
113.43753381739259
113.86816355595171
114.68143284656942
116.14473687602937
118.65540329079035
122.76336315656246
129.17396627542507
138.7191742008017
152.28992500482852
170.7322010279819
194.72230588205403
224.64871681017303
236.25117753546218
202.78961020674365
176.03357682347462
155.3568092965028
139.93807686758603
128.85534427310145
121.18134554369094
116.06320982514954
112.77442226939907
110.7371703809132
109.51959255398837
108.81691023947963
108.42523295535226
108.21508376289451
108.10886009234028
108.06415160396247
108.06341553509804
108.10996578700727
108.23036818787476
108.48366437198193
108.97790292438337
109.89373965796872
111.51298716483636
114.24687905091206
118.65540118571778
125.44637032523633
135.44352100951923
149.51759110988152
168.4841268261259
192.9841370687468
223.37312345076742
230.53327900580126
197.98684966381177
171.846728950338
151.564526499893
136.38694188319872
125.44512262741057
117.85008791925249
112.77442987200392
109.50765230133706
107.48141984262364
106.2692053370051
105.56912229888795
105.17882781411174
104.9697516546376
104.86500784366022
104.82307598467058
104.82782964322136
104.88493009174981
105.02466291552378
105.31154019297702
105.86095005379516
106.86236752533581
108.60676327979198
111.51298916585108
116.14473756433377
123.20743838758206
133.51498566361474
147.9212342499667
167.22034021055492
192.0314298764717
222.6921411539079
226.95243247533466
195.0242993197525
169.28093705444238
149.2413227088973
134.20554631013275
123.34312225763742
115.79076401937488
110.73716854998288
107.48141839004951
105.46051558944316
104.2508416856053
103.55201138372203
103.16249448917067
102.95424443353161
102.85088895130637
102.8116484360232
102.82160365004162
102.88835766973543
103.04512618145128
103.36048392304072
103.95491010638837
105.02349611161652
106.86236606918594
109.89373933122623
114.68143253699887
121.92668396299237
132.43472860660927
147.0472884886525
166.54512189911128
191.5352380974137
222.3467502147579
224.7926736995426
193.2631248765264
167.7639517670786
147.86725870243598
132.91153438223762
122.09219166019598
114.56209089957042
109.51959289583479
106.26920722616732
104.25084151775252
103.04238242289698
102.34421074352137
101.95522627525544
101.7477035872407
101.6456608314312
101.6089229853689
101.62354633460001
101.69863697137558
101.8695562158986
102.2076671825211
102.83668461775406
103.95491176523849
105.86095051888007
108.9779015996364
113.8681614472746
121.22889629872135
131.85895141142507
146.5923734541334
166.20233057615
191.28987885047738
222.18069955437363
223.5362525936321
192.2525911977094
166.89754872712194
147.08176310843592
132.16959134208847
121.3727944377392
113.85393740133793
108.81691116600715
105.56911892437454
103.55201134090322
102.3442120184442
101.64648783098991
101.25796974079321
101.05114496680457
100.95033039446533
100.91582346197137
100.93442196717452
101.0163175978883
101.19832989145114
101.55358636203725
102.20766844509278
103.36048483442833
105.3115395419286
108.48366724531718
113.43753786802365
120.86718687363732
131.56732081906364
146.36762530734416
166.03746205344854
191.17536171949826
222.10616468337543
222.83050464852212
191.69219416722908
166.4189472765691
146.64726857419691
131.75805615503313
120.97275683063617
113.45952310763451
108.42523705834684
105.17882623989726
103.16249564039519
101.9552255545571
101.25796931311497
100.86997658400857
100.66387969279972
100.56421674499869
100.53163681299533
100.55346689736322
100.64063125549242
100.83086814359982
101.19832886986335
101.86955588950948
103.04512747009464
105.02466044532848
108.23036726086455
113.22149337784899
120.69000350686524
131.4282468961322
146.26365609891613
165.96395577686275
191.12688818307464
222.07766081140304
222.44704100442578
191.39145394695134
166.16302019000463
146.41471555701574
131.53733644614985
120.75791893000668
113.24771289170876
108.21508053524516
104.96975063168088
102.95424617154079
101.74770271828217
101.05114495739554
100.66387958711323
100.45863251310081
100.36009698882093
100.32917277637448
100.35354535520378
100.44460513008127
100.64063109923325
101.01631787464035
101.69863686644864
102.8883584749554
104.88492986532944
108.10996824737059
113.12175071625437
120.61102896937682
131.36895577985058
146.22199326048687
165.93737066715084
191.11302680271183
222.07506881883157
222.24541050963816
191.2353445325257
166.03077467649106
146.29480536301847
131.42376416413552
120.64782086700242
113.13981572511939
108.1088594022993
104.8650077977352
102.85088858078298
101.64566082825306
100.95033070055723
100.56421663432187
100.36009711491174
100.26277656724382
100.23333338182432
100.25969585995097
100.35354525469592
100.55346663652224
100.93442161735243
101.62354637185153
102.8216030886311
104.8278273037745
108.0634146789647
113.08607210578694
120.58595432135581
131.35369001409305
146.21550068192687
165.9387711859067
191.1223275021797
222.0940669306057
222.1430707958384
191.15757874521938
165.9659127009825
146.23696971476318
131.37019581562623
120.59747578172846
113.092304826854
108.06415196934654
104.8230771918083
102.81164808062441
101.60892315349831
100.91582271549936
100.53163685611239
100.32917259431886
100.23333338582515
100.20534803581596
100.23333343579556
100.32917266796633
100.5316371204731
100.91582304856553
101.60892277344436
102.81164932233146
104.82307596479053
108.06415443490854
113.09230805592944
120.59747293689885
131.37020496124944
146.23696184918987
165.9659297130515
191.15754671639303
222.1430723028555
222.09409726815994
191.12230814079285
165.9387942276908
146.21552037765773
131.3536874552729
120.5859638609335
113.08607245244109
108.06341800727246
104.82782730897067
102.82160458004
101.62354743581639
100.93442161794331
100.55346728668718
100.35354531559194
100.25969591082814
100.23333347359072
100.2627766473478
100.36009689169572
100.56421674630067
100.9503301866513
101.64566002793765
102.85088860028985
104.86500566071243
108.1088590269857
113.13980886126525
120.64782223752012
131.42374871853403
146.2947862367877
166.03078578791227
191.23530901693798
222.24540393656383
222.0751013066118
191.11300552330087
165.93738030602
146.2219799471526
131.36895913521747
120.61102369001341
113.1217466761776
108.1099699800385
104.88492776668475
102.88835907588695
101.6986362720365
101.01631740407088
100.64063095301746
100.44460502441066
100.35354544272455
100.32917279983779
100.36009701885114
100.45863265136865
100.66387975765083
101.0511447152624
101.7477034048637
102.95424531636716
104.96975203157389
108.21508233900224
113.24771050059
120.7579245698749
131.53732920855668
146.41472597520016
166.16298880840912
191.39144709509688
222.4470657147622
222.07762402200458
191.1269006738467
165.9639663206519
146.2636408663382
131.42825141274363
120.68999782054928
113.22149427237609
108.23036452036764
105.02466115609792
103.04512818074859
101.86955522386387
101.1983296123903
100.83086797780051
100.64063114395711
100.55346688079074
100.53163680430092
100.56421665508584
100.66387981132704
100.86997641730198
101.25796912291752
101.95522603808664
103.162495173237
105.17882739264927
108.42523472761866
113.45952742931784
120.97275059775949
131.75804861419599
146.64728532515417
166.4189295881316
191.69220076477396
222.83054429185907
222.10614334512525
191.17537267005628
166.037443100907
146.36762888570027
131.56731276273146
120.86718073166135
113.43754033224985
108.48366396230529
105.31154051517224
103.36048386641633
102.20766766940662
101.55358610310464
101.19832968745035
101.01631780040465
100.93442199368262
100.91582346631232
100.9503304585781
101.05114504089849
101.25796958836712
101.64648819123578
102.34421144993485
103.55201210691662
105.56911986120609
108.81690932866769
113.85394077429993
121.37278863499542
132.16959837557982
147.08173815867266
166.897543818049
192.25261606070833
223.5363137516984
222.1807089774909
191.28988854936478
166.2023091230823
146.59237860760308
131.85894314346004
121.22889755222405
113.86815730125097
108.97790275468397
105.8609516988834
103.95491070136892
102.83668590295767
102.20766694810722
101.86955603562059
101.6986369173436
101.62354626178771
101.60892298128385
101.64566092598172
101.74770347802932
101.95522618422021
102.34421099534043
103.04238209305066
104.25084214420208
106.26920561738773
109.51959560934326
114.56208643599709
122.09218643190478
132.9115473816507
147.86724756142652
167.76396387706097
193.26317523405817
224.7926105596604
222.3467564357392
191.53521098427717
166.54512566230886
147.0472773697946
132.4347201189799
121.92668756363601
114.68142782357987
109.89374092469868
106.86236463988455
105.02349494090669
103.9549096939698
103.36048356288747
103.04512656021367
102.8883577562803
102.82160365141391
102.8116484613817
102.85088896731386
102.95424434548919
103.16249467985307
103.55201104567303
104.25084215514038
105.46051609974177
107.48141724180473
110.73717084707344
115.7907603662955
123.34312831977871
134.2055299739889
149.2413242448705
169.2809683104336
195.02437470301516
226.9524112375021
222.69216938864497
192.03142158940034
167.22036225804675
147.9212358021939
133.51499745305492
123.20744034304772
116.14474560338213
111.5129961472417
108.60676604894635
106.86237349921316
105.8609533922086
105.31154338892718
105.02466617866392
104.88493323047108
104.82783300805393
104.82307938837835
104.86501099766166
104.96975486260206
105.17883107710959
105.56912505523519
106.26920843647808
107.48142121226634
109.50765584453484
112.77442792368784
117.85008464426036
125.44513113235395
136.38693207957053
151.56453427392054
171.84676824928303
197.98678623596757
230.53325283063128
223.37311686121555
192.9841630203278
168.48412950810325
149.51759379151542
135.4435371865347
125.44637318345977
118.65541138961326
114.24688385366208
111.51299163769164
109.89374475024775
108.97790779513367
108.48367034143685
108.23037369290431
108.10997104989266
108.06342075512963
108.06415676430132
108.10886522061169
108.21508899349256
108.42523782753344
108.81691551128925
109.5195974932516
110.73717406346996
112.77442762607582
116.06321057147002
121.18135208237891
128.85533362873835
139.93807803120296
155.35683174276897
176.03363051713202
202.78957613043065
236.2511612513804
224.6487019502716
194.7223253924578
170.73219692044006
152.28993578247844
138.71917329048625
129.17397473695274
122.76337100261101
118.6554056589865
116.1447442539898
114.68143670151946
113.86816723685396
113.43753760212806
113.22149850794071
113.12175056051196
113.08607787201454
113.09231428933997
113.13981329796451
113.24771630752845
113.45952781171704
113.85394605319195
114.5620864678721
115.79076309896067
117.8500920075743
121.18134983823333
126.37827497045707
134.19270809148054
145.5155735337089
161.32709085616642
182.6170985356543
210.28473769814724
245.03366343130162
226.9176718262586
197.7339281891398
174.53104346308578
156.86609027903003
144.01167821175375
135.08439617044462
129.17396787253722
125.44637143511551
123.20743824408355
121.92668379786649
121.22889857144041
120.86718053382255
120.69000599911892
120.61103241490402
120.58595533193534
120.59747597457343
120.64782272113733
120.757926870573
120.97274472964669
121.37279043110033
122.0921903020543
123.3431246999776
125.44513153392178
128.85533688390728
134.19270631322738
142.24688812920792
153.96145099605687
170.38403828081837
192.58212406964554
221.53190164485943
257.9959316459765
230.74909167897871
202.68862837228752
180.6284202785307
164.04486247826406
152.14627596082934
144.0116836390685
138.71917078354184
135.44351482985107
133.51497852306036
132.43472036320946
131.85894581917216
131.5673168915751
131.42824056744493
131.36895217797743
131.35368247969754
131.37019979858437
131.4237402104152
131.53732418017236
131.7580461676444
132.16959226819827
132.91153798572861
134.20552486619965
136.38693144010492
139.93807559546454
145.51556585097788
153.96144460574843
166.28624479234324
183.6144960170467
207.0897393572815
237.74612482379072
276.36431456473855
236.89128220672822
210.43013782374348
189.92610715177113
174.7496703201235
164.04491673872738
156.86610219224406
152.28995703919009
149.51761129597193
147.92125955790354
147.04732937684668
146.5923981544384
146.36765353170776
146.26367973573707
146.2220201533294
146.2155231583615
146.2369884165311
146.29482676604226
146.41475030870805
146.64730428380966
147.0817724480666
147.867275415441
149.2413467204149
151.56456690677322
155.35685514561212
161.32710905834358
170.3840540981883
183.6145254655429
202.21779551852393
227.39283193937737
260.188579308732
301.34102669268265
246.24663905909176
221.92752039517893
203.40056788390748
189.92608418946986
180.6284585098215
174.5310679638557
170.73222951490217
168.48416336337084
167.220358115891
166.54515828809096
166.20234626250175
166.03748275468126
165.96397121910866
165.93739092043995
165.9388095333815
165.96594718270617
166.03081038940894
166.16301906329187
166.4189517901109
166.89757327343688
167.76398527598775
169.28098105290323
171.84679760425274
176.03364875226526
182.6171232208411
192.58213938818957
207.08975636187307
227.3928320262189
254.699277365688
290.00200515481293
333.91575079028763
259.8141062614279
238.19192560940036
221.92749914818938
210.43012519481536
202.68866273370264
197.73397140290555
194.72231559123955
192.98416375419657
192.03143320228708
191.53526468003702
191.2898792089294
191.17536847407945
191.1269194374544
191.11303197545115
191.12234022289303
191.1575654286944
191.2353349685056
191.3914643604922
191.6922093611597
192.25263373081262
193.26318311263327
195.02437292216422
197.98681789950274
202.78958867653384
210.28475151281393
221.53191272299844
237.74613537800107
260.18858367317563
290.0019978959067
328.00790002451646
374.63185364494564
278.84917522695383
259.8140780298006
246.24662473506103
236.8912838920115
230.74908522851345
226.9176745813988
224.6487076327891
223.37313373572485
222.69212242657903
222.3467572115638
222.1807128291648
222.10615079381859
222.07765691246198
222.0750699739335
222.0940753844908
222.14307036235735
222.24541158603623
222.44706463078026
222.83053396462924
223.53631204160862
224.79261322255218
226.95239702742603
230.5332664493757
236.25116076569398
245.0336569140671
257.9959258775527
276.3643160069524
301.34101625276634
333.9157266691162
374.63183586287266
422.733738157234
