# vtk DataFile Version 2.0
Unstructured Grid Example
ASCII
DATASET UNSTRUCTURED_GRID

POINTS 961 float
0.150000006 -0.00839745998 0
0.146666661 -0.00839745998 0
0.143333331 -0.00839745998 0
0.140000001 -0.00839745998 0
0.13666667 -0.00839745998 0
0.13333334 -0.00839745998 0
0.129999995 -0.00839745998 0
0.126666665 -0.00839745998 0
0.123333335 -0.00839745998 0
0.119999997 -0.00839745998 0
0.116666667 -0.00839745998 0
0.113333337 -0.00839745998 0
0.109999999 -0.00839745998 0
0.106666669 -0.00839745998 0
0.103333332 -0.00839745998 0
0.100000001 -0.00839745998 0
0.0966666639 -0.00839745998 0
0.0933333337 -0.00839745998 0
0.0900000036 -0.00839745998 0
0.086666666 -0.00839745998 0
0.0833333358 -0.00839745998 0
0.0799999982 -0.00839745998 0
0.0766666681 -0.00839745998 0
0.0733333305 -0.00839745998 0
0.0700000003 -0.00839745998 0
0.0666666701 -0.00839745998 0
0.0633333325 -0.00839745998 0
0.0599999987 -0.00839745998 0
0.0566666685 -0.00839745998 0
0.0533333346 -0.00839745998 0
0.0500000007 -0.00839745998 0
0.148333326 -0.0112842107 0
0.144999996 -0.0112842107 0
0.141666666 -0.0112842107 0
0.138333336 -0.0112842107 0
0.135000005 -0.0112842107 0
0.13166666 -0.0112842107 0
0.12833333 -0.0112842107 0
0.125 -0.0112842107 0
0.12166667 -0.0112842107 0
0.118333332 -0.0112842107 0
0.115000002 -0.0112842107 0
0.111666664 -0.0112842107 0
0.108333334 -0.0112842107 0
0.104999997 -0.0112842107 0
0.101666667 -0.0112842107 0
0.0983333364 -0.0112842107 0
0.0949999988 -0.0112842107 0
0.0916666687 -0.0112842107 0
0.088333331 -0.0112842107 0
0.0850000009 -0.0112842107 0
0.0816666633 -0.0112842107 0
0.0783333331 -0.0112842107 0
0.075000003 -0.0112842107 0
0.0716666654 -0.0112842107 0
0.0683333352 -0.0112842107 0
0.0649999976 -0.0112842107 0
0.0616666675 -0.0112842107 0
0.0583333336 -0.0112842107 0
0.0549999997 -0.0112842107 0
0.0516666658 -0.0112842107 0
0.0483333319 -0.0112842107 0
0.146666661 -0.0141709624 0
0.143333331 -0.0141709624 0
0.140000001 -0.0141709624 0
0.13666667 -0.0141709624 0
0.13333334 -0.0141709624 0
0.129999995 -0.0141709624 0
0.126666665 -0.0141709624 0
0.123333335 -0.0141709624 0
0.119999997 -0.0141709624 0
0.116666667 -0.0141709624 0
0.113333337 -0.0141709624 0
0.109999999 -0.0141709624 0
0.106666669 -0.0141709624 0
0.103333332 -0.0141709624 0
0.100000001 -0.0141709624 0
0.0966666639 -0.0141709624 0
0.0933333337 -0.0141709624 0
0.0900000036 -0.0141709624 0
0.086666666 -0.0141709624 0
0.0833333358 -0.0141709624 0
0.0799999982 -0.0141709624 0
0.0766666681 -0.0141709624 0
0.0733333305 -0.0141709624 0
0.0700000003 -0.0141709624 0
0.0666666701 -0.0141709624 0
0.0633333325 -0.0141709624 0
0.0599999987 -0.0141709624 0
0.0566666685 -0.0141709624 0
0.0533333346 -0.0141709624 0
0.0500000007 -0.0141709624 0
0.0466666669 -0.0141709624 0
0.144999996 -0.0170577131 0
0.141666666 -0.0170577131 0
0.138333336 -0.0170577131 0
0.135000005 -0.0170577131 0
0.13166666 -0.0170577131 0
0.12833333 -0.0170577131 0
0.125 -0.0170577131 0
0.12166667 -0.0170577131 0
0.118333332 -0.0170577131 0
0.115000002 -0.0170577131 0
0.111666664 -0.0170577131 0
0.108333334 -0.0170577131 0
0.104999997 -0.0170577131 0
0.101666667 -0.0170577131 0
0.0983333364 -0.0170577131 0
0.0949999988 -0.0170577131 0
0.0916666687 -0.0170577131 0
0.088333331 -0.0170577131 0
0.0850000009 -0.0170577131 0
0.0816666633 -0.0170577131 0
0.0783333331 -0.0170577131 0
0.075000003 -0.0170577131 0
0.0716666654 -0.0170577131 0
0.0683333352 -0.0170577131 0
0.0649999976 -0.0170577131 0
0.0616666675 -0.0170577131 0
0.0583333336 -0.0170577131 0
0.0549999997 -0.0170577131 0
0.0516666658 -0.0170577131 0
0.0483333319 -0.0170577131 0
0.0450000018 -0.0170577131 0
0.143333331 -0.0199444648 0
0.140000001 -0.0199444648 0
0.13666667 -0.0199444648 0
0.13333334 -0.0199444648 0
0.129999995 -0.0199444648 0
0.126666665 -0.0199444648 0
0.123333335 -0.0199444648 0
0.119999997 -0.0199444648 0
0.116666667 -0.0199444648 0
0.113333337 -0.0199444648 0
0.109999999 -0.0199444648 0
0.106666669 -0.0199444648 0
0.103333332 -0.0199444648 0
0.100000001 -0.0199444648 0
0.0966666639 -0.0199444648 0
0.0933333337 -0.0199444648 0
0.0900000036 -0.0199444648 0
0.086666666 -0.0199444648 0
0.0833333358 -0.0199444648 0
0.0799999982 -0.0199444648 0
0.0766666681 -0.0199444648 0
0.0733333305 -0.0199444648 0
0.0700000003 -0.0199444648 0
0.0666666701 -0.0199444648 0
0.0633333325 -0.0199444648 0
0.0599999987 -0.0199444648 0
0.0566666685 -0.0199444648 0
0.0533333346 -0.0199444648 0
0.0500000007 -0.0199444648 0
0.0466666669 -0.0199444648 0
0.043333333 -0.0199444648 0
0.141666666 -0.0228312165 0
0.138333336 -0.0228312165 0
0.135000005 -0.0228312165 0
0.13166666 -0.0228312165 0
0.12833333 -0.0228312165 0
0.125 -0.0228312165 0
0.12166667 -0.0228312165 0
0.118333332 -0.0228312165 0
0.115000002 -0.0228312165 0
0.111666664 -0.0228312165 0
0.108333334 -0.0228312165 0
0.104999997 -0.0228312165 0
0.101666667 -0.0228312165 0
0.0983333364 -0.0228312165 0
0.0949999988 -0.0228312165 0
0.0916666687 -0.0228312165 0
0.088333331 -0.0228312165 0
0.0850000009 -0.0228312165 0
0.0816666633 -0.0228312165 0
0.0783333331 -0.0228312165 0
0.075000003 -0.0228312165 0
0.0716666654 -0.0228312165 0
0.0683333352 -0.0228312165 0
0.0649999976 -0.0228312165 0
0.0616666675 -0.0228312165 0
0.0583333336 -0.0228312165 0
0.0549999997 -0.0228312165 0
0.0516666658 -0.0228312165 0
0.0483333319 -0.0228312165 0
0.0450000018 -0.0228312165 0
0.0416666679 -0.0228312165 0
0.140000001 -0.0257179681 0
0.13666667 -0.0257179681 0
0.13333334 -0.0257179681 0
0.129999995 -0.0257179681 0
0.126666665 -0.0257179681 0
0.123333335 -0.0257179681 0
0.119999997 -0.0257179681 0
0.116666667 -0.0257179681 0
0.113333337 -0.0257179681 0
0.109999999 -0.0257179681 0
0.106666669 -0.0257179681 0
0.103333332 -0.0257179681 0
0.100000001 -0.0257179681 0
0.0966666639 -0.0257179681 0
0.0933333337 -0.0257179681 0
0.0900000036 -0.0257179681 0
0.086666666 -0.0257179681 0
0.0833333358 -0.0257179681 0
0.0799999982 -0.0257179681 0
0.0766666681 -0.0257179681 0
0.0733333305 -0.0257179681 0
0.0700000003 -0.0257179681 0
0.0666666701 -0.0257179681 0
0.0633333325 -0.0257179681 0
0.0599999987 -0.0257179681 0
0.0566666685 -0.0257179681 0
0.0533333346 -0.0257179681 0
0.0500000007 -0.0257179681 0
0.0466666669 -0.0257179681 0
0.043333333 -0.0257179681 0
0.0399999991 -0.0257179681 0
0.138333336 -0.0286047198 0
0.135000005 -0.0286047198 0
0.13166666 -0.0286047198 0
0.12833333 -0.0286047198 0
0.125 -0.0286047198 0
0.12166667 -0.0286047198 0
0.118333332 -0.0286047198 0
0.115000002 -0.0286047198 0
0.111666664 -0.0286047198 0
0.108333334 -0.0286047198 0
0.104999997 -0.0286047198 0
0.101666667 -0.0286047198 0
0.0983333364 -0.0286047198 0
0.0949999988 -0.0286047198 0
0.0916666687 -0.0286047198 0
0.088333331 -0.0286047198 0
0.0850000009 -0.0286047198 0
0.0816666633 -0.0286047198 0
0.0783333331 -0.0286047198 0
0.075000003 -0.0286047198 0
0.0716666654 -0.0286047198 0
0.0683333352 -0.0286047198 0
0.0649999976 -0.0286047198 0
0.0616666675 -0.0286047198 0
0.0583333336 -0.0286047198 0
0.0549999997 -0.0286047198 0
0.0516666658 -0.0286047198 0
0.0483333319 -0.0286047198 0
0.0450000018 -0.0286047198 0
0.0416666679 -0.0286047198 0
0.038333334 -0.0286047198 0
0.13666667 -0.0314914696 0
0.13333334 -0.0314914696 0
0.129999995 -0.0314914696 0
0.126666665 -0.0314914696 0
0.123333335 -0.0314914696 0
0.119999997 -0.0314914696 0
0.116666667 -0.0314914696 0
0.113333337 -0.0314914696 0
0.109999999 -0.0314914696 0
0.106666669 -0.0314914696 0
0.103333332 -0.0314914696 0
0.100000001 -0.0314914696 0
0.0966666639 -0.0314914696 0
0.0933333337 -0.0314914696 0
0.0900000036 -0.0314914696 0
0.086666666 -0.0314914696 0
0.0833333358 -0.0314914696 0
0.0799999982 -0.0314914696 0
0.0766666681 -0.0314914696 0
0.0733333305 -0.0314914696 0
0.0700000003 -0.0314914696 0
0.0666666701 -0.0314914696 0
0.0633333325 -0.0314914696 0
0.0599999987 -0.0314914696 0
0.0566666685 -0.0314914696 0
0.0533333346 -0.0314914696 0
0.0500000007 -0.0314914696 0
0.0466666669 -0.0314914696 0
0.043333333 -0.0314914696 0
0.0399999991 -0.0314914696 0
0.0366666652 -0.0314914696 0
0.135000005 -0.0343782231 0
0.13166666 -0.0343782231 0
0.12833333 -0.0343782231 0
0.125 -0.0343782231 0
0.12166667 -0.0343782231 0
0.118333332 -0.0343782231 0
0.115000002 -0.0343782231 0
0.111666664 -0.0343782231 0
0.108333334 -0.0343782231 0
0.104999997 -0.0343782231 0
0.101666667 -0.0343782231 0
0.0983333364 -0.0343782231 0
0.0949999988 -0.0343782231 0
0.0916666687 -0.0343782231 0
0.088333331 -0.0343782231 0
0.0850000009 -0.0343782231 0
0.0816666633 -0.0343782231 0
0.0783333331 -0.0343782231 0
0.075000003 -0.0343782231 0
0.0716666654 -0.0343782231 0
0.0683333352 -0.0343782231 0
0.0649999976 -0.0343782231 0
0.0616666675 -0.0343782231 0
0.0583333336 -0.0343782231 0
0.0549999997 -0.0343782231 0
0.0516666658 -0.0343782231 0
0.0483333319 -0.0343782231 0
0.0450000018 -0.0343782231 0
0.0416666679 -0.0343782231 0
0.038333334 -0.0343782231 0
0.0350000001 -0.0343782231 0
0.13333334 -0.0372649729 0
0.129999995 -0.0372649729 0
0.126666665 -0.0372649729 0
0.123333335 -0.0372649729 0
0.119999997 -0.0372649729 0
0.116666667 -0.0372649729 0
0.113333337 -0.0372649729 0
0.109999999 -0.0372649729 0
0.106666669 -0.0372649729 0
0.103333332 -0.0372649729 0
0.100000001 -0.0372649729 0
0.0966666639 -0.0372649729 0
0.0933333337 -0.0372649729 0
0.0900000036 -0.0372649729 0
0.086666666 -0.0372649729 0
0.0833333358 -0.0372649729 0
0.0799999982 -0.0372649729 0
0.0766666681 -0.0372649729 0
0.0733333305 -0.0372649729 0
0.0700000003 -0.0372649729 0
0.0666666701 -0.0372649729 0
0.0633333325 -0.0372649729 0
0.0599999987 -0.0372649729 0
0.0566666685 -0.0372649729 0
0.0533333346 -0.0372649729 0
0.0500000007 -0.0372649729 0
0.0466666669 -0.0372649729 0
0.043333333 -0.0372649729 0
0.0399999991 -0.0372649729 0
0.0366666652 -0.0372649729 0
0.0333333351 -0.0372649729 0
0.13166666 -0.0401517227 0
0.12833333 -0.0401517227 0
0.125 -0.0401517227 0
0.12166667 -0.0401517227 0
0.118333332 -0.0401517227 0
0.115000002 -0.0401517227 0
0.111666664 -0.0401517227 0
[...]
POINT_DATA 961
SCALARS Temp float 1
LOOKUP_TABLE default
165.16421635761097
136.0574082778308
126.63087197323003
124.55186460498064
124.08385560328294
123.97845447221795
123.95460982353461
123.94918816221004
123.94795894409341
123.94767851215825
123.94760893955598
123.94760189998094
123.94759687206724
123.94759735889423
123.94760072205229
123.94759578096847
123.94759564499654
123.94759048498922
123.94759743156634
123.94759530385392
123.94759725612269
123.9476006759071
123.94759651117892
123.94760038247694
123.94762425830623
123.94785299534156
123.949566939229
123.96298993950015
124.07469069558172
124.9760391063557
137.39583047898134
141.43550316560916
113.15061001167354
107.19735402869726
105.85334931239568
105.5506935604504
105.48218406227716
105.46663059793634
105.46309836320093
105.46229545480001
105.4621096674645
105.46207119357852
105.46205977531038
105.46205736296783
105.46205761218455
105.46205455257191
105.46205779907253
105.46205570806147
105.462058721847
105.46205687884901
105.46205696881091
105.46205759516234
105.46205464991633
105.4620598667871
105.46207045142971
105.46216907945957
105.46288661191322
105.46835308625101
105.51088478614567
105.83985089649249
108.76510744860627
123.83486638009767
132.12491522010927
108.16187706649912
102.80730932567208
101.60022221193728
101.32640356735021
101.26415489006035
101.24998605757654
101.24675907666513
101.24602268513613
101.24585473498956
101.24581721479288
101.24580792654449
101.2458064627946
101.24580536410274
101.24580606752362
101.24580538504792
101.24580522105418
101.24580588120786
101.24580538513558
101.2458059326217
101.24580524438522
101.24580683367931
101.245811099269
101.24584637120809
101.24610466085045
101.24797501331811
101.26155993161335
101.35830592051413
102.05132852961655
105.60611335819253
123.11246304967283
129.83208757588915
106.99312987931245
101.81000756209554
100.63158258293862
100.3633136573943
100.30219336519892
100.28826243998942
100.28508626491006
100.28436186323324
100.28419691355651
100.28415908911832
100.28415053535264
100.28414850558143
100.28414803698095
100.28414804176946
100.28414791155511
100.2841481063048
100.28414796567955
100.28414802314154
100.28414795925161
100.28414817549967
100.28414999844011
100.28416181323718
100.28424540981776
100.28482273673333
100.28876191375997
100.31476057897535
100.47884733895016
101.30917822368191
105.29236511011854
123.01621374778534
129.28843803212197
106.72323891644682
101.58242189068835
100.41079657337363
100.14370048011189
100.08280013468978
100.0689124603374
100.06574523159941
100.0650228962891
100.064858183055
100.06482058412158
100.06481202666261
100.06481005450023
100.06480964538778
100.06480950853458
100.0648094830889
100.06480950764961
100.06480948756
100.0648095088855
100.06480956494335
100.06481015811889
100.06481386479624
100.06483902763782
100.06500562846678
100.06608101650538
100.07273935591637
100.1114630949179
100.30422293309918
101.21206285997604
105.25246743581003
123.00555146663682
129.16204843050377
106.66120194778246
101.53047160429541
100.36044591616007
100.09361646801128
100.03276204107352
100.01888283354684
100.01571729476382
100.01499531703031
100.01483063719458
100.01479307837208
100.01478451011917
100.0147825548515
100.01478211459896
100.01478200822565
100.01478199505509
100.01478198360914
100.01478198637557
100.01478200813816
100.0147821753204
100.01478329342609
100.01479050335146
100.01483632150827
100.01511822195637
100.0167742000183
100.02587545944743
100.07044413512179
100.27755921437091
101.19876920215776
105.24755847920379
123.00420811076738
129.13291269392795
106.64698247608314
101.51861618738185
100.34896196755015
100.08219382896985
100.02134944874582
100.00747196389918
100.0043067661202
100.00358484123113
100.00342017976946
100.00338262467783
100.0033740578655
100.00337210602851
100.0033716587055
100.00337155693919
100.00337153553492
100.00337152996947
100.00337153709897
100.00337158517675
100.00337190445542
100.00337389220213
100.00338605440659
100.00345785930007
100.00386179018592
100.00599214282676
100.01626846372237
100.06354496187117
100.2736099006662
101.19699346646992
105.24693577404442
123.00405053025347
129.12623121616318
106.64373137045284
101.51589892843384
100.34634306091466
100.0795887282522
100.01874650323924
100.00486934830009
100.00170421621797
100.00098229927767
100.00081764243264
100.00078008680566
100.00077152094958
100.00076956753428
100.00076912168367
100.00076902062438
100.00076899738488
100.00076899434615
100.00076900705567
100.00076909421355
100.00076962655196
100.00077277036192
100.00079067625022
100.00088786536763
100.00138466598489
100.00374939971925
100.01454377630594
100.06245100419633
100.27304503613676
101.19675468560307
105.24684890629929
123.00401880933389
129.12467993806487
106.64299439215475
101.5152782315284
100.34574650366021
100.0789947006327
100.018152763874
100.00427573960384
100.0011106180263
100.00038870255379
100.00022404647937
100.00018649093131
100.00017792527605
100.00017597147709
100.0001755258765
100.00017542441563
100.00017540178793
100.00017540042265
100.00017542266315
100.000175561387
100.00017635726401
100.00018075107596
100.00020390135235
100.00031937919503
100.00086273145715
100.00332763190809
100.01425432355938
100.06228476004317
100.2729648915589
101.19672384641602
105.2468454495624
123.00402947071292
129.12434175587106
106.6427823817407
101.5151435811268
100.34561147937876
100.07885943896733
100.01801736307945
100.00414035224412
100.00097522481987
100.00025331297414
100.00008865660776
100.00005110125295
100.00004253550497
100.00004058177912
100.00004013622438
100.00004003474015
100.00004001260665
100.00004001348921
100.00004004782332
100.00004024579518
100.00004131056602
100.00004678279811
100.00007354997037
100.00019825367833
100.00076112940515
100.00325346810158
100.01420801641378
100.06226011107003
100.27295343254833
101.19671817270543
105.24683741355045
123.00401651170114
129.12430379600522
106.64275440910436
101.51511585136457
100.34558091113576
100.07882825231401
100.01798647959114
100.004109473443
100.00094434317737
100.0002224329965
100.0000577764489
100.00002022114379
100.00001165536865
100.00000970166707
100.00000925610898
100.0000091547454
100.00000913316022
100.00000913682038
100.00000918432994
100.00000943958223
100.00001072532493
100.00001691511089
100.00004550949686
100.00017404233995
100.0007425630912
100.00324105918531
100.01420082637279
100.0622564462163
100.27295221799424
101.19671914238867
105.24684748995706
123.00402034604777
129.1242296318958
106.64276400568613
101.5151102707491
100.34557417171588
100.07882109940692
100.01797943332001
100.00410241290253
100.0009373001407
100.00021538908267
100.00005073322673
100.00001317789912
100.00000461211418
100.0000026584227
100.00000221288566
100.00000211165677
100.00000209070058
100.00000209725371
100.000002156885
100.00000245730064
100.00000388574904
100.00001043750157
100.00003978623369
100.00016947461556
100.00073933615792
100.00323905938265
100.014199751605
100.06225593046362
100.27295192779775
101.19671930871316
105.24684248248293
123.00402984903533
129.12424594006777
106.64277382012199
101.51511000964383
100.34557140691776
100.07881954292799
100.01797785407688
100.00410080639378
100.00093569582793
100.00021378275322
100.00004912683524
100.00001157143197
100.00000300568372
100.0000010520022
100.00000060650272
100.00000050542302
100.00000048510155
100.00000049421118
100.00000056305683
100.00000089190709
100.00000239209815
100.00000909299668
100.00003867753932
100.00016865360764
100.00073879489976
100.00323874049535
100.01419956525581
100.0622558886759
100.27295210043107
101.19671958725904
105.24683492621506
123.0040186248727
129.12423766437126
106.64276929341057
101.51510989990899
100.34557041708528
100.07881916452432
100.0179774215795
100.00410044275846
100.00093532669611
100.00021341649439
100.00004876052527
100.00001120508938
100.00000263938564
100.00000068574316
100.0000002403128
100.00000013939948
100.00000011963627
100.00000013063782
100.00000020516603
100.00000054825483
100.00000207803157
100.00000882691393
100.00003847267031
100.00016851213047
100.00073870821336
100.00323869617809
100.01419954334658
100.06225586600819
100.27295198606024
101.19671809853314
105.24684451830113
123.00402098853475
129.12424758410123
106.64277256664329
101.51510434709503
100.34557062053021
100.07881926545276
100.0179773473795
100.004100369116
100.00093524359107
100.00021333327739
100.00004867711428
100.00001112194488
100.0000025563893
100.00000060291055
100.00000015765622
100.00000005696911
100.00000003766492
100.0000000498442
100.0000001272213
100.00000047619801
100.00000201572514
100.00000877755068
100.00003843728854
100.00016848928585
100.00073869464114
100.00323868475924
100.01419954842689
100.06225588871848
100.27295204684322
101.196717533862
105.24684227237044
123.00402136733508
129.12423253527862
106.642772856761
101.51510216804616
100.34557095484031
100.07881900147734
100.01797734126038
100.004100337319
100.00093522539379
100.00021331545811
100.00004865961635
100.000011105173
100.00000254033606
100.00000058755997
100.00000014288311
100.00000004265434
100.0000000237968
100.00000003664661
100.00000011524047
100.00000046621439
100.00000200846085
100.00000877335438
100.00003843608101
100.00016849065675
100.00073869842858
100.00323868893848
100.0141995467685
100.0622558728467
100.27295188204054
101.19671967580427
105.2468403560477
123.00402483500768
129.1242432705989
106.64275224997539
101.51510580924098
100.34557192266044
100.07881902660672
100.01797737405795
100.00410033526246
100.00093522568788
100.00021331678953
100.00004866441381
100.00001111319995
100.00000255154194
100.00000060143996
100.0000001586496
100.00000005956292
100.0000000413592
100.00000005467325
100.00000013375181
100.0000004853181
100.00000202824155
100.00000879379631
100.00003845706183
100.00016851194236
100.00073871895002
100.00323871212726
100.01419957563455
100.0622559333648
100.27295175067897
101.19671872861
105.24683871289348
123.0040186739411
129.12426297587461
106.64275690900214
101.5151076951133
100.34557070700144
100.07881904101788
100.0179773155521
100.00410034968124
100.00093524905199
100.00021335122784
100.00004871353829
100.00001117705126
100.00000262822148
100.00000068733102
100.00000025002564
100.00000015367429
100.00000013667292
100.00000015048091
100.00000022980431
100.00000058154869
100.00000212462868
100.00000889033356
100.00003855374676
100.00016860885637
100.00073881571693
100.00323880786868
100.01419967116495
100.06225598436913
100.27295225089237
101.19671812164108
105.24684072430932
123.00402211793924
129.12423019395646
106.64276468583107
101.5151094128475
100.34557027457465
100.07881911204875
100.017977352978
100.00410043656575
100.00093538325675
100.00021355182572
100.00004898187004
100.00001150634617
100.00000300283169
100.00000108929243
100.00000066557837
100.00000057503492
100.00000056009233
100.00000057453718
100.00000065405322
100.00000100587029
100.0000025489899
100.00000931471979
100.00003897814624
100.00016903313073
100.0007392411028
100.00323923692147
100.01420011406655
100.06225640857654
100.27295263113938
101.19671923055009
105.24684224548095
123.00402507694163
129.12424619355437
106.64277299565146
101.51510456257223
100.3455706161372
100.07881912581841
100.0179776989965
100.00410096624279
100.0009361764324
100.00021465248875
100.00005037181694
100.00001311907374
100.0000047524114
100.00000290692844
100.00000251237005
100.0000024319372
100.00000241995329
100.00000243516328
100.00000251486433
100.00000286672667
100.00000440986182
100.00001117560147
100.00004083904169
100.00017089388928
100.00074110118969
100.00324109445317
100.01420195001525
100.06225830321519
100.27295411724916
101.19672037221439
105.24684159064823
123.00402357248814
129.12423704694143
106.64277465525558
101.51510197484441
100.34557167844638
100.0788202099614
100.01797962844743
100.00410403174162
100.00094063291262
100.00022047569563
100.0000572879001
100.0000207214226
100.00001269546476
100.00001099692444
100.00001065238078
100.00001058614889
100.00001057770791
100.00001059372161
100.0000106735889
100.00001102548667
100.00001256862976
100.00001933437143
100.00004899778328
100.00017905288533
100.00074926094318
100.00324925699935
100.01421010799034
100.06226645581145
100.27296243768127
101.19672916140891
105.24685439541359
123.00403574738762
129.12422647681132
106.64274410227789
101.51510578319353
100.34557462201992
100.07882722570928
100.01799136002394
100.00412181274555
100.00096481269833
100.00025001348962
100.00009027548253
100.00005541306359
100.00004813014226
100.00004667903873
100.00004640248657
100.0000463526057
100.00004634772779
100.00004636447949
100.00004644449311
100.0000467964132
100.00004833956379
100.00005510530572
100.00008476871525
100.0002148237704
100.00078503170903
100.00328502513729
100.01424590091553
100.06230220724417
100.27299840713837
101.19676627214595
105.246895240155
123.00410026075964
129.12427683928908
106.64276670565008
101.5151242147076
100.34559945177848
100.07887079720271
100.01806102675265
100.00422111973452
100.00109033282311
100.00039292827836
100.00024169485236
100.00021060519299
100.0002045453182
100.0002034178519
100.00020321611478
100.00020318209768
100.0002031803589
100.00020319761211
100.0002032777401
100.0002036296999
100.00020517287562
100.00021193860334
100.0002416020112
100.00037165708368
100.00094186501308
100.00344185518632
100.0144027215467
100.06245904818196
100.2731553469997
101.19692402543144
105.2470546256739
123.00432123529139
129.12425785324845
106.64281448133859
101.51520123842752
100.34575558011767
100.07913774565715
100.01846303160013
100.00475100816641
100.00170841086728
100.00105328500405
100.00092131497021
100.0008962631883
100.00089173356912
100.0008909449813
100.00089081186754
100.00089079063227
100.00089079140372
100.0008908091664
100.0008908892775
100.00089124126367
100.0008927842624
100.00089955005356
100.00092921362562
100.00105926917004
100.00162947826259
100.0041294826702
100.01509038452446
100.06314699551021
100.27384478799401
101.1976216349209
105.24780803913153
123.00537256220682
129.12437598521691
106.64308504361547
101.51573942628113
100.34674776377814
100.08073493337136
100.02068085735627
100.00741916348112
100.00458528546856
100.00402924220843
100.00392701258662
100.00390912493025
100.00390610653785
100.00390561010809
100.0039055322283
100.00390552084576
100.00390552163533
100.00390553986183
100.00390562048554
100.00390597294425
100.00390751588289
100.00391428139142
100.00394394558364
100.0040740028574
100.00464422316776
100.00714427619388
100.01810542453116
100.06616325591334
100.27686757279109
101.20068072724771
105.25108086609667
123.00995490882433
129.1251843084374
106.64483977312949
101.51928927003253
100.35293693130657
100.0899084944275
100.0321777834596
100.01993499725941
100.0176157603607
100.01720563741809
100.01713654062708
100.01712528604476
100.01712349382701
100.01712321301979
100.0171231659595
100.01712316328074
100.01712316690286
100.0171231839107
100.01712326495107
100.01712361329352
100.01712515740164
100.01713192573449
100.01716159569473
100.01729166593303
100.0178619462813
100.02036227682576
100.03132471929419
100.07938874659314
100.29012438916618
101.21410706876156
105.26547517365786
123.03013226282607
129.1307255597692
106.65689620314707
101.54243268565011
100.39023875292862
100.13937416276724
100.0865241588897
100.07698934440708
100.07538144332872
100.07512207591675
100.07508136427569
100.07507508706026
100.07507411849055
100.07507400221753
100.0750739855181
100.0750739555739
100.07507396530754
100.0750739932951
100.07507407917211
100.07507442647183
100.0750759649636
100.07508274096514
100.07511241576545
100.07524258751329
100.0758132394716
100.07831522288981
100.08928506277535
100.13738275955154
100.34827804550751
101.27306936213633
105.3288609269164
123.11925670832625
129.1689621636426
106.73912595916177
101.69017394006043
100.60295326860951
100.37471549455944
100.33636122536717
100.33025575001398
100.3293182425764
100.32917683916364
100.32915591579145
100.32915283721421
100.32915235061525
100.32915220465868
100.32915224609927
100.32915226150119
100.32915226434768
100.32915227272046
100.32915228028907
100.3291526526972
100.32915425135377
100.32916110295832
100.32919087103501
100.32932152036093
100.32989450670824
100.33240662662784
100.34342077293446
100.39171298870939
100.60347486554899
101.53233361299132
105.60876489423443
123.51506992944698
129.4389676200025
107.29864971301826
102.6063584048985
101.61792729746352
101.4690149993923
101.44688105516205
101.44366341008428
101.44319796775328
101.44313074747298
101.44312118956168
101.4431193768584
101.44311970714686
101.44311971124871
101.44311918257515
101.44311947800031
101.44311950971444
101.44311961890855
101.4431196055197
101.44311994813809
101.44312165037493
101.4431283019991
101.4431591870825
101.4432930322356
101.44388042113616
101.44645558716037
101.45774319542065
101.50721786901609
101.72405594956659
102.67442577521406
106.85238430628321
125.27554404070302
131.38228309916127
111.26829514133553
106.95612437092645
106.4138229280701
106.33907306623671
106.32880648015511
106.32737685434417
106.3271743843572
106.32715029812896
106.32714599992876
106.32714506965974
106.32714309660858
106.32714378907464
106.32714553519739
106.32714447550406
106.32714423917756
106.32714267347616
106.32714369481482
106.32714528230139
106.32714747829098
106.3271551046517
106.32718927594671
106.32734461273026
106.32802265215905
106.3309920135111
106.34399442595289
106.40087971520785
106.6492606164562
107.73067504298479
112.37348624526017
133.44783283389663
148.8237002233176
129.7192198342828
127.99900803345722
127.77444715824593
127.74504986818674
127.74106962888193
127.74051414647913
127.74044778321509
127.740431901868
127.74042459211962
127.74043259405417
127.74042879114819
127.7404299437018
127.74042865681245
127.74042956874676
127.74042905349482
127.74043049127945
127.7404328865296
127.74043089883489
127.74043126564786
127.74044878439314
127.74051322111973
127.74079818016573
127.74204016125042
127.74748021879103
127.77127553757435
127.87507247638345
128.3256887435629
130.25530738869327
138.38632961205235
161.05325467603228
