# vtk DataFile Version 2.0
Unstructured Grid Example
ASCII
DATASET UNSTRUCTURED_GRID

POINTS 961 float
0.150000006 -0.00839745998 0
0.146666661 -0.00839745998 0
0.143333331 -0.00839745998 0
0.140000001 -0.00839745998 0
0.13666667 -0.00839745998 0
0.13333334 -0.00839745998 0
0.129999995 -0.00839745998 0
0.126666665 -0.00839745998 0
0.123333335 -0.00839745998 0
0.119999997 -0.00839745998 0
0.116666667 -0.00839745998 0
0.113333337 -0.00839745998 0
0.109999999 -0.00839745998 0
0.106666669 -0.00839745998 0
0.103333332 -0.00839745998 0
0.100000001 -0.00839745998 0
0.0966666639 -0.00839745998 0
0.0933333337 -0.00839745998 0
0.0900000036 -0.00839745998 0
0.086666666 -0.00839745998 0
0.0833333358 -0.00839745998 0
0.0799999982 -0.00839745998 0
0.0766666681 -0.00839745998 0
0.0733333305 -0.00839745998 0
0.0700000003 -0.00839745998 0
0.0666666701 -0.00839745998 0
0.0633333325 -0.00839745998 0
0.0599999987 -0.00839745998 0
0.0566666685 -0.00839745998 0
0.0533333346 -0.00839745998 0
0.0500000007 -0.00839745998 0
0.148333326 -0.0112842107 0
0.144999996 -0.0112842107 0
0.141666666 -0.0112842107 0
0.138333336 -0.0112842107 0
0.135000005 -0.0112842107 0
0.13166666 -0.0112842107 0
0.12833333 -0.0112842107 0
0.125 -0.0112842107 0
0.12166667 -0.0112842107 0
0.118333332 -0.0112842107 0
0.115000002 -0.0112842107 0
0.111666664 -0.0112842107 0
0.108333334 -0.0112842107 0
0.104999997 -0.0112842107 0
0.101666667 -0.0112842107 0
0.0983333364 -0.0112842107 0
0.0949999988 -0.0112842107 0
0.0916666687 -0.0112842107 0
0.088333331 -0.0112842107 0
0.0850000009 -0.0112842107 0
0.0816666633 -0.0112842107 0
0.0783333331 -0.0112842107 0
0.075000003 -0.0112842107 0
0.0716666654 -0.0112842107 0
0.0683333352 -0.0112842107 0
0.0649999976 -0.0112842107 0
0.0616666675 -0.0112842107 0
0.0583333336 -0.0112842107 0
0.0549999997 -0.0112842107 0
0.0516666658 -0.0112842107 0
0.0483333319 -0.0112842107 0
0.146666661 -0.0141709624 0
0.143333331 -0.0141709624 0
0.140000001 -0.0141709624 0
0.13666667 -0.0141709624 0
0.13333334 -0.0141709624 0
0.129999995 -0.0141709624 0
0.126666665 -0.0141709624 0
0.123333335 -0.0141709624 0
0.119999997 -0.0141709624 0
0.116666667 -0.0141709624 0
0.113333337 -0.0141709624 0
0.109999999 -0.0141709624 0
0.106666669 -0.0141709624 0
0.103333332 -0.0141709624 0
0.100000001 -0.0141709624 0
0.0966666639 -0.0141709624 0
0.0933333337 -0.0141709624 0
0.0900000036 -0.0141709624 0
0.086666666 -0.0141709624 0
0.0833333358 -0.0141709624 0
0.0799999982 -0.0141709624 0
0.0766666681 -0.0141709624 0
0.0733333305 -0.0141709624 0
0.0700000003 -0.0141709624 0
0.0666666701 -0.0141709624 0
0.0633333325 -0.0141709624 0
0.0599999987 -0.0141709624 0
0.0566666685 -0.0141709624 0
0.0533333346 -0.0141709624 0
0.0500000007 -0.0141709624 0
0.0466666669 -0.0141709624 0
0.144999996 -0.0170577131 0
0.141666666 -0.0170577131 0
0.138333336 -0.0170577131 0
0.135000005 -0.0170577131 0
0.13166666 -0.0170577131 0
0.12833333 -0.0170577131 0
0.125 -0.0170577131 0
0.12166667 -0.0170577131 0
0.118333332 -0.0170577131 0
0.115000002 -0.0170577131 0
0.111666664 -0.0170577131 0
0.108333334 -0.0170577131 0
0.104999997 -0.0170577131 0
0.101666667 -0.0170577131 0
0.0983333364 -0.0170577131 0
0.0949999988 -0.0170577131 0
0.0916666687 -0.0170577131 0
0.088333331 -0.0170577131 0
0.0850000009 -0.0170577131 0
0.0816666633 -0.0170577131 0
0.0783333331 -0.0170577131 0
0.075000003 -0.0170577131 0
0.0716666654 -0.0170577131 0
0.0683333352 -0.0170577131 0
0.0649999976 -0.0170577131 0
0.0616666675 -0.0170577131 0
0.0583333336 -0.0170577131 0
0.0549999997 -0.0170577131 0
0.0516666658 -0.0170577131 0
0.0483333319 -0.0170577131 0
0.0450000018 -0.0170577131 0
0.143333331 -0.0199444648 0
0.140000001 -0.0199444648 0
0.13666667 -0.0199444648 0
0.13333334 -0.0199444648 0
0.129999995 -0.0199444648 0
0.126666665 -0.0199444648 0
0.123333335 -0.0199444648 0
0.119999997 -0.0199444648 0
0.116666667 -0.0199444648 0
0.113333337 -0.0199444648 0
0.109999999 -0.0199444648 0
0.106666669 -0.0199444648 0
0.103333332 -0.0199444648 0
0.100000001 -0.0199444648 0
0.0966666639 -0.0199444648 0
0.0933333337 -0.0199444648 0
0.0900000036 -0.0199444648 0
0.086666666 -0.0199444648 0
0.0833333358 -0.0199444648 0
0.0799999982 -0.0199444648 0
0.0766666681 -0.0199444648 0
0.0733333305 -0.0199444648 0
0.0700000003 -0.0199444648 0
0.0666666701 -0.0199444648 0
0.0633333325 -0.0199444648 0
0.0599999987 -0.0199444648 0
0.0566666685 -0.0199444648 0
0.0533333346 -0.0199444648 0
0.0500000007 -0.0199444648 0
0.0466666669 -0.0199444648 0
0.043333333 -0.0199444648 0
0.141666666 -0.0228312165 0
0.138333336 -0.0228312165 0
0.135000005 -0.0228312165 0
0.13166666 -0.0228312165 0
0.12833333 -0.0228312165 0
0.125 -0.0228312165 0
0.12166667 -0.0228312165 0
0.118333332 -0.0228312165 0
0.115000002 -0.0228312165 0
0.111666664 -0.0228312165 0
0.108333334 -0.0228312165 0
0.104999997 -0.0228312165 0
0.101666667 -0.0228312165 0
0.0983333364 -0.0228312165 0
0.0949999988 -0.0228312165 0
0.0916666687 -0.0228312165 0
0.088333331 -0.0228312165 0
0.0850000009 -0.0228312165 0
0.0816666633 -0.0228312165 0
0.0783333331 -0.0228312165 0
0.075000003 -0.0228312165 0
0.0716666654 -0.0228312165 0
0.0683333352 -0.0228312165 0
0.0649999976 -0.0228312165 0
0.0616666675 -0.0228312165 0
0.0583333336 -0.0228312165 0
0.0549999997 -0.0228312165 0
0.0516666658 -0.0228312165 0
0.0483333319 -0.0228312165 0
0.0450000018 -0.0228312165 0
0.0416666679 -0.0228312165 0
0.140000001 -0.0257179681 0
0.13666667 -0.0257179681 0
0.13333334 -0.0257179681 0
0.129999995 -0.0257179681 0
0.126666665 -0.0257179681 0
0.123333335 -0.0257179681 0
0.119999997 -0.0257179681 0
0.116666667 -0.0257179681 0
0.113333337 -0.0257179681 0
0.109999999 -0.0257179681 0
0.106666669 -0.0257179681 0
0.103333332 -0.0257179681 0
0.100000001 -0.0257179681 0
0.0966666639 -0.0257179681 0
0.0933333337 -0.0257179681 0
0.0900000036 -0.0257179681 0
0.086666666 -0.0257179681 0
0.0833333358 -0.0257179681 0
0.0799999982 -0.0257179681 0
0.0766666681 -0.0257179681 0
0.0733333305 -0.0257179681 0
0.0700000003 -0.0257179681 0
0.0666666701 -0.0257179681 0
0.0633333325 -0.0257179681 0
0.0599999987 -0.0257179681 0
0.0566666685 -0.0257179681 0
0.0533333346 -0.0257179681 0
0.0500000007 -0.0257179681 0
0.0466666669 -0.0257179681 0
0.043333333 -0.0257179681 0
0.0399999991 -0.0257179681 0
0.138333336 -0.0286047198 0
0.135000005 -0.0286047198 0
0.13166666 -0.0286047198 0
0.12833333 -0.0286047198 0
0.125 -0.0286047198 0
0.12166667 -0.0286047198 0
0.118333332 -0.0286047198 0
0.115000002 -0.0286047198 0
0.111666664 -0.0286047198 0
0.108333334 -0.0286047198 0
0.104999997 -0.0286047198 0
0.101666667 -0.0286047198 0
0.0983333364 -0.0286047198 0
0.0949999988 -0.0286047198 0
0.0916666687 -0.0286047198 0
0.088333331 -0.0286047198 0
0.0850000009 -0.0286047198 0
0.0816666633 -0.0286047198 0
0.0783333331 -0.0286047198 0
0.075000003 -0.0286047198 0
0.0716666654 -0.0286047198 0
0.0683333352 -0.0286047198 0
0.0649999976 -0.0286047198 0
0.0616666675 -0.0286047198 0
0.0583333336 -0.0286047198 0
0.0549999997 -0.0286047198 0
0.0516666658 -0.0286047198 0
0.0483333319 -0.0286047198 0
0.0450000018 -0.0286047198 0
0.0416666679 -0.0286047198 0
0.038333334 -0.0286047198 0
0.13666667 -0.0314914696 0
0.13333334 -0.0314914696 0
0.129999995 -0.0314914696 0
0.126666665 -0.0314914696 0
0.123333335 -0.0314914696 0
0.119999997 -0.0314914696 0
0.116666667 -0.0314914696 0
0.113333337 -0.0314914696 0
0.109999999 -0.0314914696 0
0.106666669 -0.0314914696 0
0.103333332 -0.0314914696 0
0.100000001 -0.0314914696 0
0.0966666639 -0.0314914696 0
0.0933333337 -0.0314914696 0
0.0900000036 -0.0314914696 0
0.086666666 -0.0314914696 0
0.0833333358 -0.0314914696 0
0.0799999982 -0.0314914696 0
0.0766666681 -0.0314914696 0
0.0733333305 -0.0314914696 0
0.0700000003 -0.0314914696 0
0.0666666701 -0.0314914696 0
0.0633333325 -0.0314914696 0
0.0599999987 -0.0314914696 0
0.0566666685 -0.0314914696 0
0.0533333346 -0.0314914696 0
0.0500000007 -0.0314914696 0
0.0466666669 -0.0314914696 0
0.043333333 -0.0314914696 0
0.0399999991 -0.0314914696 0
0.0366666652 -0.0314914696 0
0.135000005 -0.0343782231 0
0.13166666 -0.0343782231 0
0.12833333 -0.0343782231 0
0.125 -0.0343782231 0
0.12166667 -0.0343782231 0
0.118333332 -0.0343782231 0
0.115000002 -0.0343782231 0
0.111666664 -0.0343782231 0
0.108333334 -0.0343782231 0
0.104999997 -0.0343782231 0
0.101666667 -0.0343782231 0
0.0983333364 -0.0343782231 0
0.0949999988 -0.0343782231 0
0.0916666687 -0.0343782231 0
0.088333331 -0.0343782231 0
0.0850000009 -0.0343782231 0
0.0816666633 -0.0343782231 0
0.0783333331 -0.0343782231 0
0.075000003 -0.0343782231 0
0.0716666654 -0.0343782231 0
0.0683333352 -0.0343782231 0
0.0649999976 -0.0343782231 0
0.0616666675 -0.0343782231 0
0.0583333336 -0.0343782231 0
0.0549999997 -0.0343782231 0
0.0516666658 -0.0343782231 0
0.0483333319 -0.0343782231 0
0.0450000018 -0.0343782231 0
0.0416666679 -0.0343782231 0
0.038333334 -0.0343782231 0
0.0350000001 -0.0343782231 0
0.13333334 -0.0372649729 0
0.129999995 -0.0372649729 0
0.126666665 -0.0372649729 0
0.123333335 -0.0372649729 0
0.119999997 -0.0372649729 0
0.116666667 -0.0372649729 0
0.113333337 -0.0372649729 0
0.109999999 -0.0372649729 0
0.106666669 -0.0372649729 0
0.103333332 -0.0372649729 0
0.100000001 -0.0372649729 0
0.0966666639 -0.0372649729 0
0.0933333337 -0.0372649729 0
0.0900000036 -0.0372649729 0
0.086666666 -0.0372649729 0
0.0833333358 -0.0372649729 0
0.0799999982 -0.0372649729 0
0.0766666681 -0.0372649729 0
0.0733333305 -0.0372649729 0
0.0700000003 -0.0372649729 0
0.0666666701 -0.0372649729 0
0.0633333325 -0.0372649729 0
0.0599999987 -0.0372649729 0
0.0566666685 -0.0372649729 0
0.0533333346 -0.0372649729 0
0.0500000007 -0.0372649729 0
0.0466666669 -0.0372649729 0
0.043333333 -0.0372649729 0
0.0399999991 -0.0372649729 0
0.0366666652 -0.0372649729 0
0.0333333351 -0.0372649729 0
0.13166666 -0.0401517227 0
0.12833333 -0.0401517227 0
0.125 -0.0401517227 0
0.12166667 -0.0401517227 0
0.118333332 -0.0401517227 0
0.115000002 -0.0401517227 0
0.111666664 -0.0401517227 0
[...]
POINT_DATA 961
SCALARS Temp float 1
LOOKUP_TABLE default
424.37184795200716
375.89776616852447
334.3947988215437
301.1063076443609
275.56780363712454
256.7993294798839
243.57564231019091
234.6357030833311
228.8301929372087
225.2043308646082
223.02334951307583
221.7579860069793
221.04877934086213
220.66422685979984
220.46230789501521
220.3598404721406
220.31049164692274
220.2904988248265
220.29072292601845
220.31401330650826
220.37781611689064
220.522871094521
220.8296444343529
221.44395497118805
222.6114204019265
224.7164861599162
228.31608015103987
234.15316287694438
243.13645694854353
256.2886689627535
274.99003499934247
377.33929064085606
329.79712352864124
290.9522555853822
260.4170649570903
237.40841096386157
220.7813488616266
209.25133188003053
201.57232843974347
196.65532805303667
193.6245190038439
191.82368023088483
190.79070780824807
190.2178693577465
189.91035876655698
189.75054723445032
189.6706568999321
189.63386202430235
189.6226478009785
189.6331246365712
189.67473987796683
189.77571159488267
189.99548466627695
190.44585120298458
191.32146138499945
192.93765824800593
195.76857456687227
200.4726688563936
207.88959023706778
218.9951482087652
234.82158064313748
255.87126091917952
337.1313345781513
292.22130612868784
256.04242157989296
228.00975000928375
207.13979255027988
192.21307239821354
181.95271547302488
175.1695163609401
170.8524189780207
168.20441210780814
166.6370845990181
165.74071566492418
165.2447504968612
164.9790173937049
164.84133999737165
164.7732970458545
164.7438728667898
164.7398509036192
164.76201636159144
164.82699669949983
164.97542789833824
165.28794100631663
165.91024930772514
167.08698944582167
169.20019296269558
172.8027523492684
178.63187830562305
187.58508106973093
200.64207339848303
218.67085262639145
242.44539408344434
304.8483667957385
262.6868538247859
229.0214771116208
203.13429201162123
183.97490226831835
170.32882124813483
160.97334987240419
154.79641548873684
150.86591205931916
148.45333521502747
147.02335908601648
146.2040065607809
145.74968073088237
145.505802186088
145.37950970790868
145.31792134996277
145.29369277712348
145.29697461418962
145.3332157959407
145.42691804461938
145.63232178750204
146.05238013898162
146.86670404856793
148.36680944421764
150.99259579523797
155.35844935053632
162.25293285123624
172.59482720671537
187.3312238418967
207.33749272285075
233.28554202483278
279.9881669779193
240.39239606714017
208.90278224723178
184.74696687506383
166.8842693534497
154.15533256628575
145.41464569119114
139.62961171809724
135.93749094629567
133.6636763499642
132.3112458268632
131.53363210523474
131.10104685555154
130.86827923463815
130.74787726087223
130.69025287703136
130.67060089407497
130.68207575266058
130.73494156567293
130.8620237801147
131.1315070290687
131.66812243889888
132.68265417422325
134.50678704634106
137.62573582229695
142.69610759705688
150.53348757774506
162.05688679906876
178.19674891766408
199.7710198397913
227.3436912328354
261.60678550313224
224.22782284322258
194.50034412204036
171.66380031747835
154.734717407327
142.63181733448002
134.2902166161658
128.74773153021314
125.19656853179563
123.00130589433117
121.69099601964506
120.93518422552161
120.51359362906702
120.28640325354523
120.1692491036076
120.1145917717945
120.09960902061623
120.1203322084385
120.19190406581039
120.35544361203493
120.69242340882333
121.34720981188875
122.55691978099173
124.68459074200685
128.24726873366308
133.9266299828133
142.54847471264577
155.0234275733706
172.2480499325059
194.97647494668138
223.68855884822284
248.55222250021046
212.96828436261526
184.58655539830553
162.70322878296784
146.41400195676698
134.7192323632418
126.6256510725297
121.22719765063555
117.75614430932062
115.60369489482244
114.31544372297155
113.5706491068668
113.15449266343772
112.93016017066364
112.81507138662771
112.76308151687525
112.75308037412142
112.78386632770365
112.87529697242509
113.07620986446287
113.47981731626659
114.24681466591761
115.63470923752921
118.02873300927902
121.96576936578002
128.13956002942916
137.37541861183277
150.56651800873385
168.57271946104382
192.09587275352445
221.5584004498294
239.6431262376724
205.4303009770438
178.02219214781715
156.7940236759063
140.92333031043913
129.48319470686562
121.53749522511514
116.22124380603806
112.79403051496185
110.66410128299984
109.38702034196353
108.64764346195791
108.23416208336607
108.01141980572382
107.89791495521662
107.84855748050354
107.84377772075655
107.88495063272951
107.99621612420223
108.23309506157099
108.69840371234791
109.56534198730525
111.10583582217916
113.71921819538977
117.95290076495826
124.5039068378268
134.19028892852737
147.88559930836047
166.41889644148586
190.45531223307546
220.3823082519124
233.7971773245698
200.57667239378512
173.8384309636024
153.03958636750704
137.43073806296766
126.142916022397
118.28198368652396
113.01092337075875
109.6068725210644
107.48839602110401
106.21681110262257
105.48005407332877
105.06793484531289
104.8462218923309
104.73411898198023
104.68739702694414
104.68785525610075
104.73914744230723
104.86904675268791
105.13844779692575
105.65742624872166
106.6079716064963
108.27124290861332
111.05442162744298
115.50903447228785
122.33022098744183
132.32656092137066
146.3546639903267
165.22157162265054
189.5694942881478
219.76695836689296
230.10590694766458
197.56806450324817
171.2693693158765
150.73953960768154
135.28770780989655
124.0874449292302
116.27327763705672
111.0261843905362
107.63398451583114
105.52116240682203
104.25223162602221
103.51675552448324
103.10540554900811
102.88448529914109
102.77370297784137
102.72954828120072
102.73499040725623
102.79557617508837
102.94194996962689
103.23901305934882
103.80189902390545
104.81823077064628
106.57442133257808
109.48121223910289
114.0905092851511
121.0934747956492
131.29005864709083
145.52448461842312
164.58988685850667
189.11576607823602
219.46166861640506
227.86076067240745
195.7709399873657
169.74780820121381
149.37952217067314
134.01810204686186
122.86633342780617
115.07707870814355
109.84230579371778
106.45599881868091
104.34592602714449
103.07828723014676
102.34348990375783
101.93266554952724
101.71244383094484
101.60291574780906
101.56115822901138
101.57108963853905
101.6397269206638
101.79982466069129
102.11904627497498
102.71575678633423
103.7808272087708
105.60323332015676
108.5947209331131
113.30589097233343
120.42387480293367
130.74213955801184
145.09700005872295
164.2736947298209
188.89550042804706
219.31839928076946
226.54366885711866
194.73509698087392
168.87758280078506
148.60248261336608
133.29122505087162
122.16536127933962
114.38896143259876
109.16039355975867
105.77699446173594
103.6683077633247
102.40137576918572
101.66703750356085
101.25667191906318
101.03712275260014
100.92877376601096
100.88916139695627
100.90292845622453
100.97815720235353
101.14904246960066
101.48500354157271
102.10628123644196
103.20538661368161
105.07225195854153
108.11841520520628
112.89278132925452
120.07932137386348
130.46726415647575
144.88841244425575
164.12404931192404
188.794827883487
219.2558645405023
225.79775134880637
194.1582736309083
168.39640743545516
148.17304699068976
132.8887340506572
121.77634066807633
114.00649333166258
108.78108435065451
105.39924722227407
103.29141219556249
102.02503703103571
101.29117253657208
100.88132415194883
100.66248104964023
100.5552436696954
100.51749184276804
100.5343871769405
100.61473357192415
100.79363735904906
101.14154159225838
101.77965968791096
102.9011948339157
104.79621952571333
107.8756670006875
112.68701085576312
119.9121102882341
130.33776610031012
144.79344947396962
164.0587394934748
188.7534583464297
219.23304571798937
225.38928000452728
193.8476027843339
168.1390180339525
147.94354742293072
132.67336296431972
121.56796573525875
113.80167030087449
108.57815304876176
105.19750402259497
103.09054142268774
101.82491024981934
101.09174628904225
100.68261646916844
100.46460423031904
100.3584622699819
100.32231668476918
100.34168178191116
100.42582263927368
100.61038422456392
100.96635544754633
101.61538736965628
102.75088647254167
104.66276455667848
107.76135905586041
112.59315876587769
119.83877850325209
130.28377970901025
144.7566192471823
164.0363334264169
188.74287120846617
219.23243848052505
225.17297643716276
193.68594337834668
168.00617820817288
147.82562362870587
132.5630715932016
121.46178195125819
113.69799513431356
108.47630322361468
105.09720499647943
102.99166017010057
101.72735594011944
100.99541763749303
100.58742837651901
100.37052579902503
100.26557303529097
100.23087266287153
100.25217889070858
100.33904559818625
100.52742344689625
100.88857066409395
101.54430721740047
102.68803551663754
104.60945584521235
107.71847768461241
112.5610047286816
119.81703122821294
130.27156419395746
144.75277434339205
164.03977605637652
188.75324766701374
219.25088017829842
225.06264543992012
193.60551643957228
167.9414965625851
147.76944793688742
132.51192599343213
121.41426190692817
113.6535239754598
108.43475287195906
105.05849142664283
102.95566142602878
101.69386327524579
100.96414517793292
100.55806848157044
100.34280217732037
100.23930929763017
100.20604158297903
100.22894002264799
100.3177589358257
100.5086349044653
100.87296193325791
101.53261722270852
102.68095404279153
104.60750763928395
107.72193591070764
112.56984563412347
119.83098838185352
130.29025717495483
144.7759783139494
164.0679054960351
188.78801809310372
219.29678504090018
225.0100293434621
193.56971152827754
167.9155415823056
147.75010449349216
132.4980678259362
121.40572836952025
113.65046783027988
108.43730724968385
105.06658106869143
102.96896882786143
101.71182579977872
100.98605921994948
100.5831897219898
100.37044438025453
100.26892358329134
100.23726279244569
100.26160239325142
100.35188305946106
100.544391561051
100.91061934346416
101.57247390839386
102.72327614433874
104.65247357381323
107.76961097066186
112.62021285043932
119.88402438766883
130.34615379774198
144.83550974924563
164.1331974711384
188.8637445879529
219.39239837195248
224.99065403633108
193.56202036431117
167.91695201351254
147.76017004577264
132.5174745270263
121.43527275998431
113.6908415329405
108.48866560040783
105.12851609631285
103.04053777943123
101.79168690320799
101.07268377153993
100.6750478928327
100.4661770986613
100.36743503156241
100.33775885915132
100.36357591405043
100.45506679995012
100.64869437559913
101.01606161499308
101.67912807699354
102.83121928553285
104.76176791015143
107.88031474412702
112.73246394906913
119.99820877000052
130.46326036156762
144.95782886669505
164.26548096480764
189.01551602889722
219.5814604419695
224.9962222582042
193.58060683262008
167.949417733814
147.80859044447286
132.58415720210357
121.52204539379274
113.79860376594632
108.61713963779492
105.27629648249314
103.20527423301097
101.97048786153621
101.2625122593098
100.87306359276866
100.6699695358861
100.57512677484861
100.5480043927331
100.57548854198582
100.6681147796987
100.86259452821706
101.23068656224531
101.89444129503042
103.04723835794822
104.97856753900618
108.09809311589603
112.95168935659986
120.21996510473106
130.68988758174387
145.19418649549462
164.52105995380387
189.3080854880612
219.9427717434232
225.03278232561027
193.63898175075036
168.03428102879977
147.92509094904156
132.73649058110703
121.71292179998527
114.02848309744039
108.88421848924594
105.57680418831731
103.53409046868508
102.32193041822077
101.63102572513249
101.25376316977317
101.05891165931149
100.96937229613971
100.94551884775095
100.97496115173348
101.06876045187636
101.2639801381226
101.63260077603654
102.29681338261229
103.45011364769292
105.38214648643903
108.50288109455646
113.35881563149306
120.63182717201975
131.11137670940428
145.63478012312004
164.9985403791385
189.8541647970667
220.6115296442446
225.12368963420627
193.77232148600518
168.21992377637707
148.1719839892523
133.0510440749163
122.09783561613962
114.4822055670743
109.40127834418999
106.14871141653902
104.15075476464705
102.97304169867701
102.30716555369874
101.94709258582736
101.76341610857615
101.68077073026745
101.66096883854443
101.69269858083543
101.78776277105575
101.98370109956267
102.35279377855508
103.01744167096561
104.17135333338004
106.10451203272272
109.22752817114431
114.08818358119393
121.37083084710422
131.86958119991914
146.42998309558257
165.86251188553325
190.84107711112355
221.8093125354677
225.31984709346384
194.0510222295082
168.5984616996439
148.66396869034608
133.6643971867993
122.83303529456785
115.33235027919383
110.35336694732933
107.18586805939852
105.25479618779632
104.12665691549508
103.49546962787292
103.15832897917208
102.98899713282213
102.91485800525136
102.89985241485468
102.9341719047971
103.03060251973051
103.22729682964989
103.59692778589121
104.26221277290108
105.4172534421694
107.35271782707596
110.48052676704836
115.35097305913284
122.65307763429098
133.1891955478326
147.81892126929912
167.3751641987508
192.56574393403793
223.8820639327254
225.71694534706648
194.60272562779335
169.33143540608347
149.5964532221447
134.8028643246351
124.17097656910627
116.85167554567889
112.02764987898793
108.98472688620039
107.14799537836556
106.08721115956264
105.50140446474943
105.19314757977469
105.04120997825707
104.9770003160718
104.96738662928294
105.00451783634576
105.1024077077829
105.29996434914966
105.67038009662173
106.3368795444891
107.49431780699904
109.43472427572367
112.57258605960024
117.46290930319724
124.80307341224358
135.4095066366826
150.16434806448342
169.93452689046276
195.4758196827805
227.34211438726328
226.480808130202
195.64181686571314
170.68267482307098
151.2795702401538
136.8163170586057
126.4926261796995
119.44318979621906
114.84125588178135
111.97036640798854
110.25912298230217
109.2846261265298
108.75479370506768
108.48084131241747
108.34880024576823
108.29553746375338
108.29166941272148
108.33173168765417
108.43119020955443
108.62986752151289
109.00168028773459
109.67072960052226
110.83332403003247
112.7841444255686
115.9425000255556
120.87187569101862
128.28385288755138
139.01756881916586
153.98927794921784
174.1139964887166
200.21014536674835
232.90559335106505
227.8804163995001
197.50533387580234
173.05458205990664
154.1724191054888
140.2084889620767
130.33327654357151
123.66197962919951
119.35990816199343
116.71280415318824
115.15878451930391
114.28836930811826
113.82354225655736
113.58796093651644
113.47736946932812
113.43550384845406
113.43745336527685
113.48049266968178
113.58174253980582
113.78215649751434
114.15675396820536
114.8312341681456
116.00468334306636
117.97675443685786
121.17541500703838
126.17860903834753
133.7208255990566
144.6755080088579
160.00703568105595
180.69295295958082
207.62562463866587
241.50958532222901
230.32157284676404
200.68601279594847
177.01669008482983
158.90494623020092
145.65106590845667
136.3894809213788
130.21676237334196
126.29583895089495
123.92267440863695
122.55392709622302
121.80157052561343
121.40774742615031
121.21255306811109
121.12374742817903
121.0931035491004
121.10070686833198
121.14681555859839
121.25042103662683
121.4539813118945
121.83434947876611
122.52018434231138
123.71573874675241
125.72958037802265
129.00445789912936
134.14158387257046
141.9100915224716
153.23164021835353
169.13285467164687
190.6644316541523
218.79447962342311
254.29134723074972
234.37362514538404
205.85159913203412
183.31366602218156
166.27249907702793
153.9663565597542
145.49388454199448
139.93996015396195
136.47457947265693
134.4164545363082
133.25271530786458
132.62611656091883
132.30516540694643
132.1499557445713
132.08202043468575
132.0618882436718
132.07490392122529
132.12448211965244
132.23181554553219
132.44158286729447
132.83385377216484
133.54269653019233
134.78158421072916
136.87427001700948
140.28730301827818
145.65705377938056
153.80123922110798
165.70358160756842
182.46269297784102
205.20270277888096
234.95265645819438
272.5111118918246
240.77495164280376
213.83508836737772
192.8362821853215
177.18757477149256
166.06723714702233
158.55116495701967
153.71922037068654
150.76470688730691
149.04628142874898
148.09525015069113
147.59433615246422
147.34362375321592
147.22566449107686
147.1766514216688
147.16604819062755
147.1844850437679
147.23874702918
147.35287780772646
147.57514812308818
147.9913358480266
148.7450688989742
150.0654680546828
152.3007050093705
155.95322979039705
161.70872125057986
170.44725416349917
183.22379786425654
201.20761642536456
225.578111423672
257.38706756658786
297.408992240738
250.40737995831853
225.58675972864557
206.5409201085753
192.57485045457835
182.8615985380314
176.43559894569867
172.39277353338258
169.97443000320413
168.59884300164384
167.85453221334373
167.47140761190317
167.2842933849877
167.19907361315427
167.16647495476857
167.16458925344898
167.18928291778207
167.2511941961419
167.37851502871695
167.62559980287645
168.0881512248667
168.9259155584364
170.39308432384374
172.87460805552487
176.9232361830252
183.28790506708356
192.92016529804886
206.94422145636864
226.57973602373113
253.01658916821359
287.26150836074225
329.99782276264665
264.2456841445058
242.09834791912806
225.25854219038928
213.27082005640418
205.12791710898298
199.86257595177773
196.6248023416051
194.73205087896667
193.68000099974918
193.1238015923639
192.8442166879171
192.71128725418086
192.65340667313146
192.63484096600692
192.64173519567038
192.6753450095758
192.75128230331825
192.90431620534432
193.19911862065837
193.74795871067104
194.7362690161396
196.45587519517872
199.34313806030318
204.01533481488383
211.2939699328081
222.20021064001824
237.9073820974842
259.6407830177602
288.52586064319445
325.3962977986046
370.7890580198625
283.61332637304946
263.83031045362685
249.7126283881049
239.89388349960524
233.37716753585673
229.26054126183422
226.78788267239818
225.3759805668423
224.60936963340137
224.2134983693002
224.0193985955108
223.93014199948493
223.89440611910695
223.88850911500572
223.90621092670557
223.95493281952005
224.0575257834569
224.25951821025177
224.64256586740817
225.34515169004752
226.5910771026772
228.72460136575754
232.24790158533594
237.8522960918574
246.43026922904033
259.0530852296743
276.90064779015034
301.1372380919181
332.7349845061206
372.2373733718807
418.5659343097935
