# vtk DataFile Version 2.0
Unstructured Grid Example
ASCII
DATASET UNSTRUCTURED_GRID

POINTS 961 float
0.150000006 -0.00839745998 0
0.146666661 -0.00839745998 0
0.143333331 -0.00839745998 0
0.140000001 -0.00839745998 0
0.13666667 -0.00839745998 0
0.13333334 -0.00839745998 0
0.129999995 -0.00839745998 0
0.126666665 -0.00839745998 0
0.123333335 -0.00839745998 0
0.119999997 -0.00839745998 0
0.116666667 -0.00839745998 0
0.113333337 -0.00839745998 0
0.109999999 -0.00839745998 0
0.106666669 -0.00839745998 0
0.103333332 -0.00839745998 0
0.100000001 -0.00839745998 0
0.0966666639 -0.00839745998 0
0.0933333337 -0.00839745998 0
0.0900000036 -0.00839745998 0
0.086666666 -0.00839745998 0
0.0833333358 -0.00839745998 0
0.0799999982 -0.00839745998 0
0.0766666681 -0.00839745998 0
0.0733333305 -0.00839745998 0
0.0700000003 -0.00839745998 0
0.0666666701 -0.00839745998 0
0.0633333325 -0.00839745998 0
0.0599999987 -0.00839745998 0
0.0566666685 -0.00839745998 0
0.0533333346 -0.00839745998 0
0.0500000007 -0.00839745998 0
0.148333326 -0.0112842107 0
0.144999996 -0.0112842107 0
0.141666666 -0.0112842107 0
0.138333336 -0.0112842107 0
0.135000005 -0.0112842107 0
0.13166666 -0.0112842107 0
0.12833333 -0.0112842107 0
0.125 -0.0112842107 0
0.12166667 -0.0112842107 0
0.118333332 -0.0112842107 0
0.115000002 -0.0112842107 0
0.111666664 -0.0112842107 0
0.108333334 -0.0112842107 0
0.104999997 -0.0112842107 0
0.101666667 -0.0112842107 0
0.0983333364 -0.0112842107 0
0.0949999988 -0.0112842107 0
0.0916666687 -0.0112842107 0
0.088333331 -0.0112842107 0
0.0850000009 -0.0112842107 0
0.0816666633 -0.0112842107 0
0.0783333331 -0.0112842107 0
0.075000003 -0.0112842107 0
0.0716666654 -0.0112842107 0
0.0683333352 -0.0112842107 0
0.0649999976 -0.0112842107 0
0.0616666675 -0.0112842107 0
0.0583333336 -0.0112842107 0
0.0549999997 -0.0112842107 0
0.0516666658 -0.0112842107 0
0.0483333319 -0.0112842107 0
0.146666661 -0.0141709624 0
0.143333331 -0.0141709624 0
0.140000001 -0.0141709624 0
0.13666667 -0.0141709624 0
0.13333334 -0.0141709624 0
0.129999995 -0.0141709624 0
0.126666665 -0.0141709624 0
0.123333335 -0.0141709624 0
0.119999997 -0.0141709624 0
0.116666667 -0.0141709624 0
0.113333337 -0.0141709624 0
0.109999999 -0.0141709624 0
0.106666669 -0.0141709624 0
0.103333332 -0.0141709624 0
0.100000001 -0.0141709624 0
0.0966666639 -0.0141709624 0
0.0933333337 -0.0141709624 0
0.0900000036 -0.0141709624 0
0.086666666 -0.0141709624 0
0.0833333358 -0.0141709624 0
0.0799999982 -0.0141709624 0
0.0766666681 -0.0141709624 0
0.0733333305 -0.0141709624 0
0.0700000003 -0.0141709624 0
0.0666666701 -0.0141709624 0
0.0633333325 -0.0141709624 0
0.0599999987 -0.0141709624 0
0.0566666685 -0.0141709624 0
0.0533333346 -0.0141709624 0
0.0500000007 -0.0141709624 0
0.0466666669 -0.0141709624 0
0.144999996 -0.0170577131 0
0.141666666 -0.0170577131 0
0.138333336 -0.0170577131 0
0.135000005 -0.0170577131 0
0.13166666 -0.0170577131 0
0.12833333 -0.0170577131 0
0.125 -0.0170577131 0
0.12166667 -0.0170577131 0
0.118333332 -0.0170577131 0
0.115000002 -0.0170577131 0
0.111666664 -0.0170577131 0
0.108333334 -0.0170577131 0
0.104999997 -0.0170577131 0
0.101666667 -0.0170577131 0
0.0983333364 -0.0170577131 0
0.0949999988 -0.0170577131 0
0.0916666687 -0.0170577131 0
0.088333331 -0.0170577131 0
0.0850000009 -0.0170577131 0
0.0816666633 -0.0170577131 0
0.0783333331 -0.0170577131 0
0.075000003 -0.0170577131 0
0.0716666654 -0.0170577131 0
0.0683333352 -0.0170577131 0
0.0649999976 -0.0170577131 0
0.0616666675 -0.0170577131 0
0.0583333336 -0.0170577131 0
0.0549999997 -0.0170577131 0
0.0516666658 -0.0170577131 0
0.0483333319 -0.0170577131 0
0.0450000018 -0.0170577131 0
0.143333331 -0.0199444648 0
0.140000001 -0.0199444648 0
0.13666667 -0.0199444648 0
0.13333334 -0.0199444648 0
0.129999995 -0.0199444648 0
0.126666665 -0.0199444648 0
0.123333335 -0.0199444648 0
0.119999997 -0.0199444648 0
0.116666667 -0.0199444648 0
0.113333337 -0.0199444648 0
0.109999999 -0.0199444648 0
0.106666669 -0.0199444648 0
0.103333332 -0.0199444648 0
0.100000001 -0.0199444648 0
0.0966666639 -0.0199444648 0
0.0933333337 -0.0199444648 0
0.0900000036 -0.0199444648 0
0.086666666 -0.0199444648 0
0.0833333358 -0.0199444648 0
0.0799999982 -0.0199444648 0
0.0766666681 -0.0199444648 0
0.0733333305 -0.0199444648 0
0.0700000003 -0.0199444648 0
0.0666666701 -0.0199444648 0
0.0633333325 -0.0199444648 0
0.0599999987 -0.0199444648 0
0.0566666685 -0.0199444648 0
0.0533333346 -0.0199444648 0
0.0500000007 -0.0199444648 0
0.0466666669 -0.0199444648 0
0.043333333 -0.0199444648 0
0.141666666 -0.0228312165 0
0.138333336 -0.0228312165 0
0.135000005 -0.0228312165 0
0.13166666 -0.0228312165 0
0.12833333 -0.0228312165 0
0.125 -0.0228312165 0
0.12166667 -0.0228312165 0
0.118333332 -0.0228312165 0
0.115000002 -0.0228312165 0
0.111666664 -0.0228312165 0
0.108333334 -0.0228312165 0
0.104999997 -0.0228312165 0
0.101666667 -0.0228312165 0
0.0983333364 -0.0228312165 0
0.0949999988 -0.0228312165 0
0.0916666687 -0.0228312165 0
0.088333331 -0.0228312165 0
0.0850000009 -0.0228312165 0
0.0816666633 -0.0228312165 0
0.0783333331 -0.0228312165 0
0.075000003 -0.0228312165 0
0.0716666654 -0.0228312165 0
0.0683333352 -0.0228312165 0
0.0649999976 -0.0228312165 0
0.0616666675 -0.0228312165 0
0.0583333336 -0.0228312165 0
0.0549999997 -0.0228312165 0
0.0516666658 -0.0228312165 0
0.0483333319 -0.0228312165 0
0.0450000018 -0.0228312165 0
0.0416666679 -0.0228312165 0
0.140000001 -0.0257179681 0
0.13666667 -0.0257179681 0
0.13333334 -0.0257179681 0
0.129999995 -0.0257179681 0
0.126666665 -0.0257179681 0
0.123333335 -0.0257179681 0
0.119999997 -0.0257179681 0
0.116666667 -0.0257179681 0
0.113333337 -0.0257179681 0
0.109999999 -0.0257179681 0
0.106666669 -0.0257179681 0
0.103333332 -0.0257179681 0
0.100000001 -0.0257179681 0
0.0966666639 -0.0257179681 0
0.0933333337 -0.0257179681 0
0.0900000036 -0.0257179681 0
0.086666666 -0.0257179681 0
0.0833333358 -0.0257179681 0
0.0799999982 -0.0257179681 0
0.0766666681 -0.0257179681 0
0.0733333305 -0.0257179681 0
0.0700000003 -0.0257179681 0
0.0666666701 -0.0257179681 0
0.0633333325 -0.0257179681 0
0.0599999987 -0.0257179681 0
0.0566666685 -0.0257179681 0
0.0533333346 -0.0257179681 0
0.0500000007 -0.0257179681 0
0.0466666669 -0.0257179681 0
0.043333333 -0.0257179681 0
0.0399999991 -0.0257179681 0
0.138333336 -0.0286047198 0
0.135000005 -0.0286047198 0
0.13166666 -0.0286047198 0
0.12833333 -0.0286047198 0
0.125 -0.0286047198 0
0.12166667 -0.0286047198 0
0.118333332 -0.0286047198 0
0.115000002 -0.0286047198 0
0.111666664 -0.0286047198 0
0.108333334 -0.0286047198 0
0.104999997 -0.0286047198 0
0.101666667 -0.0286047198 0
0.0983333364 -0.0286047198 0
0.0949999988 -0.0286047198 0
0.0916666687 -0.0286047198 0
0.088333331 -0.0286047198 0
0.0850000009 -0.0286047198 0
0.0816666633 -0.0286047198 0
0.0783333331 -0.0286047198 0
0.075000003 -0.0286047198 0
0.0716666654 -0.0286047198 0
0.0683333352 -0.0286047198 0
0.0649999976 -0.0286047198 0
0.0616666675 -0.0286047198 0
0.0583333336 -0.0286047198 0
0.0549999997 -0.0286047198 0
0.0516666658 -0.0286047198 0
0.0483333319 -0.0286047198 0
0.0450000018 -0.0286047198 0
0.0416666679 -0.0286047198 0
0.038333334 -0.0286047198 0
0.13666667 -0.0314914696 0
0.13333334 -0.0314914696 0
0.129999995 -0.0314914696 0
0.126666665 -0.0314914696 0
0.123333335 -0.0314914696 0
0.119999997 -0.0314914696 0
0.116666667 -0.0314914696 0
0.113333337 -0.0314914696 0
0.109999999 -0.0314914696 0
0.106666669 -0.0314914696 0
0.103333332 -0.0314914696 0
0.100000001 -0.0314914696 0
0.0966666639 -0.0314914696 0
0.0933333337 -0.0314914696 0
0.0900000036 -0.0314914696 0
0.086666666 -0.0314914696 0
0.0833333358 -0.0314914696 0
0.0799999982 -0.0314914696 0
0.0766666681 -0.0314914696 0
0.0733333305 -0.0314914696 0
0.0700000003 -0.0314914696 0
0.0666666701 -0.0314914696 0
0.0633333325 -0.0314914696 0
0.0599999987 -0.0314914696 0
0.0566666685 -0.0314914696 0
0.0533333346 -0.0314914696 0
0.0500000007 -0.0314914696 0
0.0466666669 -0.0314914696 0
0.043333333 -0.0314914696 0
0.0399999991 -0.0314914696 0
0.0366666652 -0.0314914696 0
0.135000005 -0.0343782231 0
0.13166666 -0.0343782231 0
0.12833333 -0.0343782231 0
0.125 -0.0343782231 0
0.12166667 -0.0343782231 0
0.118333332 -0.0343782231 0
0.115000002 -0.0343782231 0
0.111666664 -0.0343782231 0
0.108333334 -0.0343782231 0
0.104999997 -0.0343782231 0
0.101666667 -0.0343782231 0
0.0983333364 -0.0343782231 0
0.0949999988 -0.0343782231 0
0.0916666687 -0.0343782231 0
0.088333331 -0.0343782231 0
0.0850000009 -0.0343782231 0
0.0816666633 -0.0343782231 0
0.0783333331 -0.0343782231 0
0.075000003 -0.0343782231 0
0.0716666654 -0.0343782231 0
0.0683333352 -0.0343782231 0
0.0649999976 -0.0343782231 0
0.0616666675 -0.0343782231 0
0.0583333336 -0.0343782231 0
0.0549999997 -0.0343782231 0
0.0516666658 -0.0343782231 0
0.0483333319 -0.0343782231 0
0.0450000018 -0.0343782231 0
0.0416666679 -0.0343782231 0
0.038333334 -0.0343782231 0
0.0350000001 -0.0343782231 0
0.13333334 -0.0372649729 0
0.129999995 -0.0372649729 0
0.126666665 -0.0372649729 0
0.123333335 -0.0372649729 0
0.119999997 -0.0372649729 0
0.116666667 -0.0372649729 0
0.113333337 -0.0372649729 0
0.109999999 -0.0372649729 0
0.106666669 -0.0372649729 0
0.103333332 -0.0372649729 0
0.100000001 -0.0372649729 0
0.0966666639 -0.0372649729 0
0.0933333337 -0.0372649729 0
0.0900000036 -0.0372649729 0
0.086666666 -0.0372649729 0
0.0833333358 -0.0372649729 0
0.0799999982 -0.0372649729 0
0.0766666681 -0.0372649729 0
0.0733333305 -0.0372649729 0
0.0700000003 -0.0372649729 0
0.0666666701 -0.0372649729 0
0.0633333325 -0.0372649729 0
0.0599999987 -0.0372649729 0
0.0566666685 -0.0372649729 0
0.0533333346 -0.0372649729 0
0.0500000007 -0.0372649729 0
0.0466666669 -0.0372649729 0
0.043333333 -0.0372649729 0
0.0399999991 -0.0372649729 0
0.0366666652 -0.0372649729 0
0.0333333351 -0.0372649729 0
0.13166666 -0.0401517227 0
0.12833333 -0.0401517227 0
0.125 -0.0401517227 0
0.12166667 -0.0401517227 0
0.118333332 -0.0401517227 0
0.115000002 -0.0401517227 0
0.111666664 -0.0401517227 0
[...]
POINT_DATA 961
SCALARS Temp float 1
LOOKUP_TABLE default
391.5647888578566
342.0244847445873
300.9148902649631
269.4582313544748
246.70591986333602
231.11500349882112
220.9754990842555
214.70488295248185
211.0087622835775
208.92710631217966
207.803971312934
207.2219214705488
206.93143969477202
206.79149443607656
206.72627350385466
206.69686051782074
206.68418505814097
206.67953209068241
206.6798937893714
206.68660900309317
206.70714623982408
206.76124847103023
206.8944238372647
207.2032067801878
207.87662830992056
209.25476195322284
211.89573545046187
216.62865373502214
224.55964302295237
237.010725892782
255.75508246937034
343.73660453815575
295.6002620329212
257.8492822945913
229.66359081885673
209.71331975661334
196.3107322535507
187.75221387745898
182.54724731153917
179.5258034701802
177.847597553717
176.95346981143405
176.4953495985747
176.2690721847929
176.16108441321433
176.1112122165702
176.0889904540247
176.07976659717963
176.07727644571708
176.0803897051298
176.09313279267872
176.12840994289687
176.2175111009998
176.42912437123
176.9024898575002
177.89786452620882
179.8610419735673
183.48663108181836
189.750640188635
199.876516477659
215.22194481960824
236.53491837340837
304.08767169541284
259.2854332740965
224.7081641342653
199.30085322898486
181.54227652563557
169.73132836061444
162.2481059678895
157.723909479143
155.1087730807298
153.66039626813907
152.890052727822
152.49568969897877
152.30094336898213
152.20798741456719
152.16507597420753
152.14607771275152
152.13861247301534
152.1378906487278
152.14449906833542
152.16572693159023
152.22142020457716
152.35711294469982
152.6684935425001
153.34137694379984
154.70794283072118
157.31132416901974
161.95711981671096
169.7171369870577
181.84506216172107
199.5175978860108
223.78894502312215
273.6707027768878
232.15729305340582
200.38380947290173
177.18476200272775
161.03416027596109
150.31185075975955
143.51815276393833
139.40500254485679
137.02170190877533
135.69765034407533
134.9909797306429
134.62790082856026
134.4479537755024
134.36177941451786
134.32193348804554
134.30444220529787
134.29815195984241
134.29939090954278
134.3106323016116
134.34310442938244
134.42487885757328
134.6174921828452
135.0451049255101
135.9391876936011
137.69664471331947
140.93918907299775
146.54846135476677
155.64093857971403
169.4469201125733
189.15375178210476
215.68355433027082
251.53093300789968
212.89832378030937
183.37967422416017
161.8189301095482
146.77741757611565
136.75770684855792
130.38248172337015
126.50481009370714
124.24731786380873
122.9873615881903
122.311972183566
121.9635802689205
121.79029775583246
121.70708066676691
121.6685873637826
121.65193154602625
121.6467360280461
121.65039417107027
121.66751381792864
121.71380744372502
121.82627325053124
122.08278457894637
122.63463131764574
123.7534513943156
125.88788094791016
129.71487628871995
136.15918929684642
146.35001913732998
161.5058848283831
182.74634653542788
210.85964341060964
236.21701419950753
199.89796251252653
172.06022491024697
151.63738608818215
137.31693954627167
127.72647690620973
121.59243630071764
117.84322579791493
115.65088895702105
114.42253440389227
113.76187519440391
113.42010409765791
113.24971636966728
113.16776677851595
113.12992620201203
113.11390085723811
113.10992778233623
113.11651836591064
113.14060180091614
113.20259866263126
113.34834744196421
113.67086701605403
114.34477695902025
115.67337763340628
118.14190244881472
122.46085710525946
129.57447918507035
140.6098681234881
156.75081693506402
179.04366271850085
208.1789479413244
226.1410534284985
191.54655039287556
164.87978470492342
145.20032821525794
131.32298251325847
121.98148604816772
115.97984810699721
112.29759772627435
110.13757850819343
108.92418237571344
108.2701927847431
107.93130145673265
107.76213887779033
107.68074714782782
107.64329996182254
107.62788735415295
107.625319416419
107.63526144066225
107.6670009660808
107.74548847912378
107.92454140863346
108.30991316283657
109.09431382093534
110.6033504176595
113.3450197600889
118.04681428742481
125.65746602143267
137.28927021402083
154.08816314270774
177.04436161866946
206.7881144156454
219.8272621479448
186.43434130156064
160.5338906216333
141.31304744720808
127.69396029008455
118.48995268901378
112.5577692948118
108.90895531862606
106.76433306143386
105.55776010190795
104.90668506087175
104.569010644968
104.4003646414978
104.31925260117494
104.28212134792145
104.26736203880922
104.26634198147165
104.27985468896733
104.31939537952904
104.41390132001698
104.62375200658948
105.064401745568
105.94118094802097
107.59364159257264
110.54188950058303
115.5194411367724
123.47055860066475
135.48974908031548
152.6929852611129
176.03481790057563
206.11350097658956
216.05354524930036
183.4473217458289
158.02027561249588
139.0674302870328
125.59154913075373
116.46002272704678
110.5627642454229
106.92999906283305
104.79245055496347
103.58888238037035
102.93904397471852
102.6018746700164
102.43345763851474
102.35252411934654
102.31569489442552
102.30162606170391
102.30220613249618
102.31925624983595
102.36616870054492
102.47508819391271
102.71130401146348
103.19695319600811
104.14523746555744
105.90330000322663
108.99626158838718
114.1574870387583
122.32387581996268
134.57522281785236
152.00804776599563
175.5573841936133
205.80702351198914
213.89817595019005
181.77798057840744
156.62812689194175
137.82423031509566
124.42412905667409
115.32920702338458
109.44880317046902
105.82345347875608
103.68905302977824
102.48676690959199
101.83744397306317
101.5004875462097
101.33219011245383
101.25140225055885
101.21487478888544
101.20149923152601
101.20362327888583
101.22393130465608
101.27731039583546
101.3982629525371
101.65541409079724
102.17504234688057
103.17467085539026
105.00484882290365
108.19176730562687
113.46624686150389
121.75857711063261
134.13871788103927
151.69236488244815
175.34538620449328
205.67621686534537
212.71928641019875
180.88384768336306
155.8882081964799
137.16330673193602
123.80156710712242
114.72442641813466
108.85186526313693
105.22983545567647
103.09679211907827
101.89504479641057
101.24593799586287
100.90908172690762
100.74086731239709
100.66021606724556
100.62398455935244
100.6112635707888
100.61477778288223
100.63787851968488
100.69653232704697
100.82682107564465
101.0994195759073
101.64288814879573
102.67677413602927
104.55268505838868
107.79620743779941
113.13546765856977
121.49617113526871
133.94272048586413
151.55554684880107
175.25688192432386
205.623722610384
212.1002731815411
180.42368595069485
155.5099681689071
136.825177642106
123.48211040154801
114.41326860155195
108.54422681771813
104.92365703318683
102.79119056574923
101.58968162860907
100.94068093057537
100.60389221982743
100.43575558745559
100.35524088233272
100.31928963390611
100.3071509160532
100.31183550249267
100.33716838914837
100.39982976899569
100.53686311084326
100.82007256689329
101.37910914254762
102.4342590515657
104.33714832815237
107.61238510540161
112.98611684396647
121.38137575440041
133.85983130231008
151.49973012874992
175.2221439419985
205.60407792216895
211.78774204257272
180.19563092014982
155.32359541271035
136.6583281761208
123.32405756763116
114.2589746150191
108.39148988494777
104.77156107138785
102.63936742228731
101.43799467829709
100.78908240283256
100.45237523530557
100.28433510123577
100.20396719849725
100.16827735927092
100.15663250275854
100.16224377914624
100.18924582835737
100.2547497204205
100.39632790503663
100.68633282138842
101.25484811380068
102.32229933232905
104.24001705256069
107.53181784524773
112.92266135027761
121.33425455604515
133.82706877702032
151.4786021328688
175.20968609371923
205.59770278649142
211.63553761859598
180.08652562362678
155.23489118082074
136.57883866900207
123.24857495920772
114.18517167773835
108.3184365848103
104.69885239998139
102.56687561352496
101.36566642462273
100.71690160124305
100.38033844121225
100.21244845680967
100.13226025762127
100.09682463127685
100.08559114452798
100.09190183938772
100.12007888968263
100.18747165022603
100.3319137550058
100.62598473895133
101.1998890919557
102.27398994755697
104.19932605163473
107.49922036539408
112.89801696887551
121.31684558918317
133.81574632332968
151.47203440715512
175.20667214993696
205.59732480153687
211.56396288531573
180.03611964645987
155.19409714384904
136.54236270633422
123.21397172828898
114.15144203288664
108.28520739854604
104.665995264521
102.53435850484811
101.33347729180997
100.68503036789681
100.34876112544293
100.18114095521095
100.10121107745735
100.06605449806729
100.05517794581505
100.0620074924189
100.09097408901478
100.15955025515389
100.30568517950039
100.60203578138534
101.17880840190317
102.25627287985499
104.18527529999774
107.48887802955495
112.89116267454025
121.31302901314412
133.81441364919795
151.4726505881632
175.20898582695813
205.6015731591989
211.53147966320086
180.01376195963743
155.17630863057187
136.5267001948911
123.1994155498475
114.13770820174689
108.27218656273058
104.65372174800258
102.52284108858736
101.32270219448259
100.67494632281101
100.33928359200394
100.17217359570444
100.09266392991705
100.05786846824138
100.04734217915082
100.0545735629573
100.08406269732878
100.1533482644482
100.30042873404365
100.59798081571924
101.17618885381044
102.25525358705238
104.18591847418124
107.49112558318527
112.89486272533239
121.31797882215888
133.82044533184353
151.47980035524853
175.2176556932595
205.61321487798736
211.51762616765606
180.00479075399213
155.16990304437266
136.5218787598502
123.19595720872503
114.13568968119122
108.27174932952934
104.65497962160276
102.52581307137444
101.32730914941075
100.68100485913911
100.34655299470876
100.18039551635188
100.10160090530917
100.06733328554306
100.05721300860156
100.06479729574032
100.09464847058071
100.16435372048254
100.31194122547355
100.61009352044749
101.18897880535805
102.26876212140108
104.20014173027742
107.50602618341867
112.91038301791228
121.33410828299134
133.8373164500899
151.49797767387128
175.238579716264
205.6402738030558
211.5131263611692
180.00338499982175
155.17088285543454
136.52527128905507
123.20223803559779
114.14527045170946
108.2850272182707
104.67209696236338
102.54667028065609
101.35156986828908
100.7081550010078
100.37599982817065
100.21155149745252
100.13395766781065
100.10049576713988
100.09090768604642
100.09885866655385
100.12899515118825
100.19896145738248
100.34681848714969
100.64526098217995
101.22445316396072
102.3045491028973
104.236235320446
107.54243078416351
112.94715365473517
121.37145042167607
133.87582974072674
151.53907211214226
175.285620355753
205.70050894190922
211.51526866344994
180.00934563168477
155.18123917780295
136.5411120986698
123.22476027321876
114.17546188638039
108.32346046380006
104.71877930278804
102.60105808926218
101.41264872523958
100.77465546738335
100.44660302400632
100.28505895360871
100.20939493981626
100.1771438135818
100.1682828713932
100.176664296787
100.20706676767747
100.27721861833885
100.42522758200816
100.72381134805467
101.30314344481407
102.38338457270513
104.31524320546642
107.62169037707602
113.02689508230091
121.45225644853087
133.9591447979352
151.62816867231962
175.38763067828944
205.83022366174131
211.52717884453443
180.0289429386163
155.21093284583398
136.58370801248176
123.28260534191375
114.25025773539278
108.41570838237374
104.82774935743555
102.72493121734162
101.54887767586553
100.92043516458935
100.59926708374299
100.44236379608336
100.36962956307578
100.33911711042066
100.33123236490357
100.34013949166153
100.37082180585209
100.44112992218065
100.58923889262945
100.88790146168536
101.46731362269477
102.54766255619643
104.47971898435135
107.78660233403028
113.19283754326051
121.62065888020028
134.13321174234508
151.81495740646344
175.60174536983078
206.1005144725977
211.55998620319792
180.07963556260884
155.2851367832979
136.68685351099802
123.41888309487676
114.4217650303292
108.62195989370825
105.06582358685579
102.99005334632716
101.83538613878562
101.2226947993365
100.91234779150845
100.7623909753625
100.69383059373034
100.66567184153396
100.65903740390564
100.66857472966109
100.69956337339674
100.7700210537051
100.9182121023332
101.2169392955779
101.79644035078336
102.87697214553062
104.8094550868217
108.11736603840063
113.5260387260155
121.95951598849159
134.4847020619271
152.19357725406613
176.03616312020196
206.64443775523387
211.6410086636608
180.20129096037005
155.4587824906348
136.92201134323918
123.72170102309319
114.7933940172925
109.0584223637139
105.55891210690618
103.52904120805796
102.4089740412325
101.82056301070182
101.52611060566441
101.38587190735555
101.32287234618467
101.2976986035416
101.29257179131703
101.30282962648309
101.33414847998466
101.40475884175306
101.55303731077048
101.85185863213667
102.43154262380271
103.51250742352275
105.44603601085494
108.75642490064482
114.17081019832483
122.61696795704741
135.16932688781895
152.93398069668103
176.88601324164927
207.69881438641465
211.82932852038908
180.47747486054055
155.8429988973844
137.42916362321873
124.35816376957351
115.55552652622124
109.93354300631955
106.52809548343966
104.57090511024101
103.50304767890839
102.94955267355198
102.67687227486499
102.5493127518684
102.49322499494663
102.47158693874769
102.46816293436967
102.47919765855823
102.51086001347585
102.58163471849785
102.73003822031157
103.02906040012557
103.60920068572754
104.69125409243605
106.6273427079161
109.94357602407757
115.37088128331008
123.84454155242688
136.45313208212022
154.32783480302
178.4852609893785
209.66240311025405
212.2429371160972
181.06965106022736
156.64596780822527
138.46195217675452
125.62181983975726
117.03317995116616
111.594534659998
108.33457537547234
106.48456074395138
105.49007344744336
104.9833266133327
104.73840834577308
104.6262497297616
104.57816331735097
104.560429282927
104.55880270799986
104.57062739340559
104.60263968269037
104.6736160145218
104.82225907709211
105.1217741447751
105.7030667840905
106.78780475036312
108.72997740165819
112.05955368108256
117.51504746624569
126.04600355442665
138.76615956232285
156.84836333277374
181.37309091535926
213.1666399285164
213.10125331609382
182.2676641231511
158.2284758403148
140.44477444677884
127.9880799372429
119.73806231812569
114.57584847030185
111.52507221552294
109.82197495249953
108.92332189303758
108.47472295402721
108.26269199299873
108.16791915247785
108.12844879181972
108.11473216367894
108.11488043485866
108.1274698607774
108.15985366767785
108.23114587964717
108.3803376629057
108.68108710390725
109.26522342027876
110.35636040864068
112.31246275609232
115.67128197144838
121.18578760523722
129.83091553564594
142.76222434471825
161.21651833132395
186.36389280134108
219.14295319783622
214.77948428606763
184.549569342969
161.16349290346812
144.02765954638016
132.16149692221015
124.40804669417197
119.63251791547354
116.86099083707913
115.34478063428703
114.56220742543331
114.18066834481104
114.00477248663665
113.92821841611503
113.89737115134534
113.8875077989225
113.88930758503756
113.90263056222601
113.93548168915608
114.00740830943201
114.15793362463862
114.46171040414374
115.05261596154422
116.1584107220643
118.14510740663528
121.56528093673484
127.19773589018727
136.05956681056583
149.37035563601466
168.45615053178662
194.59891600805344
228.85849703786047
217.86647665260443
188.63584167854992
166.27934955727594
150.11362818793063
139.08792977687523
132.00866281914026
127.73502051223988
125.30890898331879
124.01272813634411
123.36022263775611
123.05025040166424
122.91113006118759
122.85228569165264
122.8294654259093
122.82305961102891
122.82633716908404
122.84043019722796
122.87405976068203
122.94744322685803
123.10119594295946
123.41214112723631
124.01850502678174
125.15643171505998
127.20728916354236
130.75016990515272
136.60677102153602
145.85858320561059
159.813838428982
179.90847668365916
207.5428868519199
243.87869255220951
223.20286811298803
195.50915863330363
174.65308687095788
159.82444934770382
149.90206664367886
143.67294059076087
140.0023447298285
137.97084056176539
136.91372591317597
136.39576898635275
136.1563868238119
136.0519124130074
136.0090361999994
135.99317757949441
135.9897136489066
135.99435083198136
136.00947464534147
136.04472276420574
136.12154748194925
136.2828742136876
136.61009113132346
137.25018031936682
138.45525372354822
140.63411062786005
144.40990776014885
150.66980566397135
160.58410341750812
175.56866768541795
197.17165032280292
226.8860658359296
265.9165275409524
231.87271362356037
206.37042201266044
187.51795060639165
174.3710674767277
165.8031627380869
160.56616365839687
157.56306310544343
155.94641851418518
155.12846122416562
154.73882567003253
154.56375421537163
154.4894972670803
154.46000346512767
154.44981439499787
154.44881837448622
154.45494080894426
154.4719193136539
154.51084363508858
154.59564100733897
154.7740201192508
155.13649048020386
155.84662536359912
157.18497286461542
159.60583570616973
163.79960425859275
170.74373314183225
181.71591454645582
198.23933686094404
221.939573908721
254.32519217122694
296.54641950964384
245.13750282107873
222.52620187355868
206.00412518105935
194.89232143683876
187.86218256607415
183.6876176296695
181.3619396397444
180.1456602951279
179.54772898935806
179.27089404658952
179.14996035874478
179.10013297965827
179.0811124047711
179.07537469181798
179.07666358747431
179.08500380120805
179.10593127616946
179.15322179173106
179.25580113154214
179.47083052625663
179.90597150072986
180.75416495589513
182.3429153889306
185.1958123838875
190.09598747687355
198.13041010038796
210.68420873862826
229.35262761826147
255.75117590798877
291.2291668069465
336.7764212481101
264.6880323192694
244.66248287906438
231.09296224677905
222.234392309901
216.79322752428902
213.65639674221214
211.95961995996257
211.09774176102727
210.68597870768272
210.50059421934046
210.42183067567422
210.39039038848657
210.37915653380725
210.37705852849845
210.38114397291596
210.3937810592185
210.4234753755365
210.489226045147
210.6297020980344
210.91968022365882
211.4969497759405
212.60262697708296
214.63534628057297
218.2140095249298
224.2343766979581
233.8939664208359
248.6526501296133
270.0995478165184
299.71153500035973
338.493708417097
385.434712568593
