# vtk DataFile Version 2.0
Unstructured Grid Example
ASCII
DATASET UNSTRUCTURED_GRID

POINTS 961 float
0.150000006 -0.00839745998 0
0.146666661 -0.00839745998 0
0.143333331 -0.00839745998 0
0.140000001 -0.00839745998 0
0.13666667 -0.00839745998 0
0.13333334 -0.00839745998 0
0.129999995 -0.00839745998 0
0.126666665 -0.00839745998 0
0.123333335 -0.00839745998 0
0.119999997 -0.00839745998 0
0.116666667 -0.00839745998 0
0.113333337 -0.00839745998 0
0.109999999 -0.00839745998 0
0.106666669 -0.00839745998 0
0.103333332 -0.00839745998 0
0.100000001 -0.00839745998 0
0.0966666639 -0.00839745998 0
0.0933333337 -0.00839745998 0
0.0900000036 -0.00839745998 0
0.086666666 -0.00839745998 0
0.0833333358 -0.00839745998 0
0.0799999982 -0.00839745998 0
0.0766666681 -0.00839745998 0
0.0733333305 -0.00839745998 0
0.0700000003 -0.00839745998 0
0.0666666701 -0.00839745998 0
0.0633333325 -0.00839745998 0
0.0599999987 -0.00839745998 0
0.0566666685 -0.00839745998 0
0.0533333346 -0.00839745998 0
0.0500000007 -0.00839745998 0
0.148333326 -0.0112842107 0
0.144999996 -0.0112842107 0
0.141666666 -0.0112842107 0
0.138333336 -0.0112842107 0
0.135000005 -0.0112842107 0
0.13166666 -0.0112842107 0
0.12833333 -0.0112842107 0
0.125 -0.0112842107 0
0.12166667 -0.0112842107 0
0.118333332 -0.0112842107 0
0.115000002 -0.0112842107 0
0.111666664 -0.0112842107 0
0.108333334 -0.0112842107 0
0.104999997 -0.0112842107 0
0.101666667 -0.0112842107 0
0.0983333364 -0.0112842107 0
0.0949999988 -0.0112842107 0
0.0916666687 -0.0112842107 0
0.088333331 -0.0112842107 0
0.0850000009 -0.0112842107 0
0.0816666633 -0.0112842107 0
0.0783333331 -0.0112842107 0
0.075000003 -0.0112842107 0
0.0716666654 -0.0112842107 0
0.0683333352 -0.0112842107 0
0.0649999976 -0.0112842107 0
0.0616666675 -0.0112842107 0
0.0583333336 -0.0112842107 0
0.0549999997 -0.0112842107 0
0.0516666658 -0.0112842107 0
0.0483333319 -0.0112842107 0
0.146666661 -0.0141709624 0
0.143333331 -0.0141709624 0
0.140000001 -0.0141709624 0
0.13666667 -0.0141709624 0
0.13333334 -0.0141709624 0
0.129999995 -0.0141709624 0
0.126666665 -0.0141709624 0
0.123333335 -0.0141709624 0
0.119999997 -0.0141709624 0
0.116666667 -0.0141709624 0
0.113333337 -0.0141709624 0
0.109999999 -0.0141709624 0
0.106666669 -0.0141709624 0
0.103333332 -0.0141709624 0
0.100000001 -0.0141709624 0
0.0966666639 -0.0141709624 0
0.0933333337 -0.0141709624 0
0.0900000036 -0.0141709624 0
0.086666666 -0.0141709624 0
0.0833333358 -0.0141709624 0
0.0799999982 -0.0141709624 0
0.0766666681 -0.0141709624 0
0.0733333305 -0.0141709624 0
0.0700000003 -0.0141709624 0
0.0666666701 -0.0141709624 0
0.0633333325 -0.0141709624 0
0.0599999987 -0.0141709624 0
0.0566666685 -0.0141709624 0
0.0533333346 -0.0141709624 0
0.0500000007 -0.0141709624 0
0.0466666669 -0.0141709624 0
0.144999996 -0.0170577131 0
0.141666666 -0.0170577131 0
0.138333336 -0.0170577131 0
0.135000005 -0.0170577131 0
0.13166666 -0.0170577131 0
0.12833333 -0.0170577131 0
0.125 -0.0170577131 0
0.12166667 -0.0170577131 0
0.118333332 -0.0170577131 0
0.115000002 -0.0170577131 0
0.111666664 -0.0170577131 0
0.108333334 -0.0170577131 0
0.104999997 -0.0170577131 0
0.101666667 -0.0170577131 0
0.0983333364 -0.0170577131 0
0.0949999988 -0.0170577131 0
0.0916666687 -0.0170577131 0
0.088333331 -0.0170577131 0
0.0850000009 -0.0170577131 0
0.0816666633 -0.0170577131 0
0.0783333331 -0.0170577131 0
0.075000003 -0.0170577131 0
0.0716666654 -0.0170577131 0
0.0683333352 -0.0170577131 0
0.0649999976 -0.0170577131 0
0.0616666675 -0.0170577131 0
0.0583333336 -0.0170577131 0
0.0549999997 -0.0170577131 0
0.0516666658 -0.0170577131 0
0.0483333319 -0.0170577131 0
0.0450000018 -0.0170577131 0
0.143333331 -0.0199444648 0
0.140000001 -0.0199444648 0
0.13666667 -0.0199444648 0
0.13333334 -0.0199444648 0
0.129999995 -0.0199444648 0
0.126666665 -0.0199444648 0
0.123333335 -0.0199444648 0
0.119999997 -0.0199444648 0
0.116666667 -0.0199444648 0
0.113333337 -0.0199444648 0
0.109999999 -0.0199444648 0
0.106666669 -0.0199444648 0
0.103333332 -0.0199444648 0
0.100000001 -0.0199444648 0
0.0966666639 -0.0199444648 0
0.0933333337 -0.0199444648 0
0.0900000036 -0.0199444648 0
0.086666666 -0.0199444648 0
0.0833333358 -0.0199444648 0
0.0799999982 -0.0199444648 0
0.0766666681 -0.0199444648 0
0.0733333305 -0.0199444648 0
0.0700000003 -0.0199444648 0
0.0666666701 -0.0199444648 0
0.0633333325 -0.0199444648 0
0.0599999987 -0.0199444648 0
0.0566666685 -0.0199444648 0
0.0533333346 -0.0199444648 0
0.0500000007 -0.0199444648 0
0.0466666669 -0.0199444648 0
0.043333333 -0.0199444648 0
0.141666666 -0.0228312165 0
0.138333336 -0.0228312165 0
0.135000005 -0.0228312165 0
0.13166666 -0.0228312165 0
0.12833333 -0.0228312165 0
0.125 -0.0228312165 0
0.12166667 -0.0228312165 0
0.118333332 -0.0228312165 0
0.115000002 -0.0228312165 0
0.111666664 -0.0228312165 0
0.108333334 -0.0228312165 0
0.104999997 -0.0228312165 0
0.101666667 -0.0228312165 0
0.0983333364 -0.0228312165 0
0.0949999988 -0.0228312165 0
0.0916666687 -0.0228312165 0
0.088333331 -0.0228312165 0
0.0850000009 -0.0228312165 0
0.0816666633 -0.0228312165 0
0.0783333331 -0.0228312165 0
0.075000003 -0.0228312165 0
0.0716666654 -0.0228312165 0
0.0683333352 -0.0228312165 0
0.0649999976 -0.0228312165 0
0.0616666675 -0.0228312165 0
0.0583333336 -0.0228312165 0
0.0549999997 -0.0228312165 0
0.0516666658 -0.0228312165 0
0.0483333319 -0.0228312165 0
0.0450000018 -0.0228312165 0
0.0416666679 -0.0228312165 0
0.140000001 -0.0257179681 0
0.13666667 -0.0257179681 0
0.13333334 -0.0257179681 0
0.129999995 -0.0257179681 0
0.126666665 -0.0257179681 0
0.123333335 -0.0257179681 0
0.119999997 -0.0257179681 0
0.116666667 -0.0257179681 0
0.113333337 -0.0257179681 0
0.109999999 -0.0257179681 0
0.106666669 -0.0257179681 0
0.103333332 -0.0257179681 0
0.100000001 -0.0257179681 0
0.0966666639 -0.0257179681 0
0.0933333337 -0.0257179681 0
0.0900000036 -0.0257179681 0
0.086666666 -0.0257179681 0
0.0833333358 -0.0257179681 0
0.0799999982 -0.0257179681 0
0.0766666681 -0.0257179681 0
0.0733333305 -0.0257179681 0
0.0700000003 -0.0257179681 0
0.0666666701 -0.0257179681 0
0.0633333325 -0.0257179681 0
0.0599999987 -0.0257179681 0
0.0566666685 -0.0257179681 0
0.0533333346 -0.0257179681 0
0.0500000007 -0.0257179681 0
0.0466666669 -0.0257179681 0
0.043333333 -0.0257179681 0
0.0399999991 -0.0257179681 0
0.138333336 -0.0286047198 0
0.135000005 -0.0286047198 0
0.13166666 -0.0286047198 0
0.12833333 -0.0286047198 0
0.125 -0.0286047198 0
0.12166667 -0.0286047198 0
0.118333332 -0.0286047198 0
0.115000002 -0.0286047198 0
0.111666664 -0.0286047198 0
0.108333334 -0.0286047198 0
0.104999997 -0.0286047198 0
0.101666667 -0.0286047198 0
0.0983333364 -0.0286047198 0
0.0949999988 -0.0286047198 0
0.0916666687 -0.0286047198 0
0.088333331 -0.0286047198 0
0.0850000009 -0.0286047198 0
0.0816666633 -0.0286047198 0
0.0783333331 -0.0286047198 0
0.075000003 -0.0286047198 0
0.0716666654 -0.0286047198 0
0.0683333352 -0.0286047198 0
0.0649999976 -0.0286047198 0
0.0616666675 -0.0286047198 0
0.0583333336 -0.0286047198 0
0.0549999997 -0.0286047198 0
0.0516666658 -0.0286047198 0
0.0483333319 -0.0286047198 0
0.0450000018 -0.0286047198 0
0.0416666679 -0.0286047198 0
0.038333334 -0.0286047198 0
0.13666667 -0.0314914696 0
0.13333334 -0.0314914696 0
0.129999995 -0.0314914696 0
0.126666665 -0.0314914696 0
0.123333335 -0.0314914696 0
0.119999997 -0.0314914696 0
0.116666667 -0.0314914696 0
0.113333337 -0.0314914696 0
0.109999999 -0.0314914696 0
0.106666669 -0.0314914696 0
0.103333332 -0.0314914696 0
0.100000001 -0.0314914696 0
0.0966666639 -0.0314914696 0
0.0933333337 -0.0314914696 0
0.0900000036 -0.0314914696 0
0.086666666 -0.0314914696 0
0.0833333358 -0.0314914696 0
0.0799999982 -0.0314914696 0
0.0766666681 -0.0314914696 0
0.0733333305 -0.0314914696 0
0.0700000003 -0.0314914696 0
0.0666666701 -0.0314914696 0
0.0633333325 -0.0314914696 0
0.0599999987 -0.0314914696 0
0.0566666685 -0.0314914696 0
0.0533333346 -0.0314914696 0
0.0500000007 -0.0314914696 0
0.0466666669 -0.0314914696 0
0.043333333 -0.0314914696 0
0.0399999991 -0.0314914696 0
0.0366666652 -0.0314914696 0
0.135000005 -0.0343782231 0
0.13166666 -0.0343782231 0
0.12833333 -0.0343782231 0
0.125 -0.0343782231 0
0.12166667 -0.0343782231 0
0.118333332 -0.0343782231 0
0.115000002 -0.0343782231 0
0.111666664 -0.0343782231 0
0.108333334 -0.0343782231 0
0.104999997 -0.0343782231 0
0.101666667 -0.0343782231 0
0.0983333364 -0.0343782231 0
0.0949999988 -0.0343782231 0
0.0916666687 -0.0343782231 0
0.088333331 -0.0343782231 0
0.0850000009 -0.0343782231 0
0.0816666633 -0.0343782231 0
0.0783333331 -0.0343782231 0
0.075000003 -0.0343782231 0
0.0716666654 -0.0343782231 0
0.0683333352 -0.0343782231 0
0.0649999976 -0.0343782231 0
0.0616666675 -0.0343782231 0
0.0583333336 -0.0343782231 0
0.0549999997 -0.0343782231 0
0.0516666658 -0.0343782231 0
0.0483333319 -0.0343782231 0
0.0450000018 -0.0343782231 0
0.0416666679 -0.0343782231 0
0.038333334 -0.0343782231 0
0.0350000001 -0.0343782231 0
0.13333334 -0.0372649729 0
0.129999995 -0.0372649729 0
0.126666665 -0.0372649729 0
0.123333335 -0.0372649729 0
0.119999997 -0.0372649729 0
0.116666667 -0.0372649729 0
0.113333337 -0.0372649729 0
0.109999999 -0.0372649729 0
0.106666669 -0.0372649729 0
0.103333332 -0.0372649729 0
0.100000001 -0.0372649729 0
0.0966666639 -0.0372649729 0
0.0933333337 -0.0372649729 0
0.0900000036 -0.0372649729 0
0.086666666 -0.0372649729 0
0.0833333358 -0.0372649729 0
0.0799999982 -0.0372649729 0
0.0766666681 -0.0372649729 0
0.0733333305 -0.0372649729 0
0.0700000003 -0.0372649729 0
0.0666666701 -0.0372649729 0
0.0633333325 -0.0372649729 0
0.0599999987 -0.0372649729 0
0.0566666685 -0.0372649729 0
0.0533333346 -0.0372649729 0
0.0500000007 -0.0372649729 0
0.0466666669 -0.0372649729 0
0.043333333 -0.0372649729 0
0.0399999991 -0.0372649729 0
0.0366666652 -0.0372649729 0
0.0333333351 -0.0372649729 0
0.13166666 -0.0401517227 0
0.12833333 -0.0401517227 0
0.125 -0.0401517227 0
0.12166667 -0.0401517227 0
0.118333332 -0.0401517227 0
0.115000002 -0.0401517227 0
0.111666664 -0.0401517227 0
[...]
POINT_DATA 961
SCALARS Temp float 1
LOOKUP_TABLE default
382.3216897389912
332.53822018472573
291.65331135733544
260.85752792043905
239.01887900067044
224.39989594634375
215.14181011806346
209.58147786991833
206.40554297026432
204.67519569672785
203.773176171297
203.32190670971912
203.10460335623776
203.00361328009285
202.95820815230812
202.93844209208132
202.93020125387605
202.92725564079356
202.92751381387873
202.93195300861035
202.94608498606
202.98514517416737
203.08610645955065
203.33157141423456
203.89155817358366
205.08653715209036
207.46522291670107
211.8734886344778
219.47471608484156
231.6901165139707
250.42960567161182
334.33721640416877
286.10823403487086
248.7952831454413
221.4110894581354
202.42853316591155
189.9814894432461
182.24637930861073
177.67971535663483
175.11144500560627
173.7315424531719
173.0211598563937
172.66973460508584
172.50221703498096
172.42507596907194
172.39069292954923
172.3758925507754
172.36993393139667
172.3683675538635
172.37042137563262
172.37904220237425
172.40399246123084
172.47011175203332
172.6347861669172
173.020316159006
173.86641138731633
175.60205261140075
178.92235413614938
184.83732209374392
194.64721892261082
209.82082906586203
231.19610329655703
294.9600824305069
250.2802938358162
216.27944689800114
191.72946102588833
174.92413484661117
164.01153162286076
157.27949042832756
153.32584498729136
151.11013465260552
149.92217410729043
149.31122113340922
149.00903813457896
148.86493681848262
148.79853066241094
148.76892687031037
148.75624789864838
148.7514004185491
148.75095960505158
148.7553724869417
148.77006113525
148.81039280328363
148.913385440113
149.16078658991808
149.7191312695214
150.89981188036828
153.23329439777788
157.53545638804724
164.92558454300655
176.74508747820013
194.27816855821877
218.68020371188192
265.2055214496038
223.96520739035157
192.82954940266558
170.47667860421674
155.2237259671803
145.32775308518842
139.21696267319263
135.6199170684183
133.59760051808416
132.50928110548236
131.94733954945056
131.66828621533605
131.53469676105198
131.4729189831446
131.44532338082394
131.4335904829498
131.4294730122297
131.4303149804531
131.4379478830015
131.46087159001667
131.52126286221443
131.6701144717127
132.01533539146908
132.76747915749547
134.3032268801026
137.23578328991735
142.46472502197238
151.16245854580455
164.65139302491457
184.22832011174705
210.90655053320245
243.95088059231588
205.66175265757906
176.77533829506172
156.0079571220486
141.79296050982956
132.5310938373848
126.78371570711114
123.38312320033897
121.46153600977077
120.42244412625475
119.88354905660053
119.6148794620185
119.48581329422889
119.4259622837581
119.3992103446696
119.3879853708811
119.38456105488693
119.38703294311013
119.39884360438852
119.43207935395922
119.51644650579455
119.71742562997761
120.16815896871269
121.11827165723905
122.99694264247634
126.47583219281644
132.50257379337268
142.26681825846725
157.08154686658804
178.1729730019023
206.41241523713208
229.57180265769722
193.59647699148863
166.34168988916662
146.64254338472404
133.08022789487856
124.19205082983156
118.64623389298069
115.34856771411778
113.47699681059908
112.46114312323797
111.93262831150109
111.66843173697127
111.54124144338483
111.48217770477113
111.45581683438968
111.4449775609965
111.44234913018899
111.44684045095374
111.4636843867435
111.50879743454317
111.61944104828086
111.87465947299737
112.42943018119163
113.56426848704676
115.7455154097271
119.68039470987466
126.33878885038342
136.9105349096999
152.67415278038175
174.78025850613324
203.9989878393617
220.34724352971833
186.05024893454978
159.89832334449304
140.87448475661657
127.6993195319694
119.0198915128075
113.58043346758204
110.3342510029927
108.48645199479515
107.481126246673
106.95710557177154
106.6947677714646
106.56833529207213
106.5096022400182
106.48347392696377
106.47301933616876
106.47132693644843
106.47816291252244
106.50060833500213
106.55830702263903
106.69539259460105
107.00236211228308
107.65113494202103
108.94393574289441
111.37013352651783
115.65502613288368
122.77443224466984
133.9044332671437
150.28581613002646
173.01259162290583
202.79464459581482
214.72677184912826
181.56440196146062
156.11099262946635
137.48946912992142
124.53176173508606
115.96323153527428
110.57736213785451
107.35583862154203
105.5188898290419
104.51816144291868
103.9960186261757
103.73443142189194
103.60830396878124
103.54973204167578
103.52379426894295
103.51375955358569
103.51311446614969
103.52247599274256
103.55067317475037
103.62065057696066
103.78220841224945
104.1345577412069
104.86138203958659
106.27838203113897
108.88710917450129
113.41945832410526
120.8475971291553
132.33059451169842
149.07996918876927
172.15498920937068
202.23508589539813
211.46792790201562
179.02456181018928
153.9879171223595
135.59302742241027
122.75137892053573
114.23904034040629
108.87904584693166
105.668874580851
103.83670305520077
102.83791321478542
102.31653272192763
102.05524333616793
101.92924563451604
101.87077683637882
101.8450258311593
101.83544238506545
101.83589104700884
101.84777135217382
101.88142193237957
101.96244617065273
102.14487346389178
102.53388021764327
103.32041874813879
104.82744867728347
107.56156957463048
112.25490791972534
119.87291818065937
131.56080510850995
148.51170652824638
171.7667289803278
201.9924096765384
209.6657336818244
177.6514342819186
152.85010241080775
134.57648273571454
121.79389227272151
113.30881671861437
107.96080792034073
104.75566699347353
102.92553525036345
101.92753723972324
101.40646128472993
101.14529206698293
101.01936096797549
100.96097833141353
100.93541728309708
100.92629148286672
100.92780159961161
100.94200742328117
100.98043732088685
101.0706422365968
101.26950364949943
101.68585453597159
102.51458472954057
104.08187403385436
106.89547061965783
111.68531421197439
119.41086497067079
131.20834013272767
148.2610858986505
171.602163387264
201.89377357485975
208.71271946140075
176.94088033549312
152.2656171565264
134.05386618377975
121.30000482148118
112.8276566817803
107.48500240185753
104.28202292742623
102.45273427275623
101.45505525296507
100.93410157678434
100.67298705522548
100.54710287722875
100.48880269073105
100.4634298836699
100.45473825639456
100.45720562157605
100.47340164602693
100.51571010729657
100.6129759825384
100.82381213900088
101.25903548539478
102.1153493816694
103.71993413104794
106.58006943544122
111.42334755585762
119.20518522411363
131.05692910738887
148.15740926405658
171.53673140297772
201.85613853657594
208.22940108425146
176.5878979597143
151.97707912344816
133.79553301840383
121.05510997186089
112.58846501977116
107.24811476464248
104.04605071764574
102.21710476417405
101.219562301571
100.69866696896987
100.43758967264831
100.31175055353205
100.25353367120697
100.22833972648264
100.22003434197744
100.2233054896933
100.24108313236478
100.28631157300772
100.38861350253259
100.60754003379141
101.05483808462309
101.9278613515365
103.55383230941919
106.43921236757477
111.3099102212792
119.11907462929771
130.9957750217569
148.11708835075171
171.51228023135292
201.84274762605963
207.9939171997893
176.41913166019975
151.8398515317572
133.6724265452403
120.93809587356742
112.47393064446311
107.134558382769
103.93287871220826
102.10408900808198
101.10662299857213
100.58577754569316
100.3247477834105
100.1989661202411
100.14083940254301
100.11581196074333
100.10783261416651
100.11173569516481
100.13068441905432
100.17795693780478
100.28359627155987
100.50759939889703
100.96207334822208
101.84449504565563
103.48184997286009
106.37994976420235
111.26372920756565
119.08526719081111
130.97268949986187
148.1025235294328
171.50389947574888
201.8385771260262
207.88327661817718
176.34124971304834
151.7768154661204
133.61579864951173
120.88412912846167
112.42102167013493
107.08210803916164
103.88062800833401
102.05196641754178
101.05459775073119
100.53384164503417
100.27290013023415
100.14721083223665
100.08919577489502
100.06432970879516
100.05661943927778
100.06099385763488
100.08075532346363
100.12936308390033
100.23706290459891
100.46403143942773
100.92247337875655
101.80981784975583
103.45281874284449
106.3568965056875
111.2465027690387
119.0732755989438
130.9650249050157
148.0981610019228
171.50194170829818
201.83832303233606
207.83308851660883
176.30654031434702
151.7488118630328
133.5906929560093
120.86021489404135
112.39763847697117
107.05902487845904
103.85777014461902
102.02932001105083
101.03215859054639
100.51160581116235
100.25085239434473
100.12533525049828
100.06748432138782
100.04279602109885
100.0353168104162
100.04003526086862
100.06033266618934
100.10975936147805
100.21864793443952
100.44723384398736
100.90772299883827
101.79747253043529
103.44308839831272
106.34979294250137
111.24184360976405
119.07071020117294
130.96413409591585
148.09853916807785
171.50339921164027
201.84100281902565
207.81109593357928
176.29166468138484
151.73699959417283
133.58024311766832
120.85044128935131
112.38838290418187
107.05021845074953
103.84945040409367
102.02149749189122
101.02482813722939
100.50473521203621
100.24438487733234
100.11920499096145
100.06162907811095
100.03717461022302
100.02992144064302
100.03490181471457
100.0555458544568
100.10545104571028
100.21498520296731
100.44439750827827
100.90587686460803
101.7967286039548
103.44348291689198
106.35127404131447
111.24429331569486
119.07397495217795
130.96808345544278
148.10318812858787
171.5089905881126
201.8485444755759
207.80202668270687
176.28586163412407
151.73287390362884
133.57711880328338
120.84818973490327
112.38708007938071
107.04997746200777
103.85036399885999
102.02358809116862
101.02804714304375
100.50895589397335
100.24943807819942
100.12490804878257
100.06781405788661
100.04370959924066
100.03672110880191
100.04192934920641
100.06280796897181
100.11298800440166
100.22285741602883
100.45266850960518
100.91459781731038
101.80592463473612
103.45314664516951
106.36137507517796
111.25478453727172
119.08483901794305
130.97939082635332
148.1153086984971
171.52290093642057
201.86664891437314
207.799177908006
176.2850290699371
151.73359284405586
133.57943255676565
120.85248693600009
112.39367010162465
107.05917794879784
103.86229587797897
102.0381930602664
101.04508753619399
100.52805803822368
100.27016852929832
100.1468376641853
100.09057410713159
100.0670165135073
100.06038114657223
100.0658270987121
100.08688775185888
100.13723377488766
100.24727514878658
100.47727184247003
100.93939682721714
101.83092115033759
103.4783330462658
106.38674925605523
111.28037468001271
119.11076828732493
131.00604927438346
148.14363465252376
171.55527362146987
201.90840965667005
207.80065406405848
176.2890890127846
151.74068246792652
133.59039394410692
120.86825607789211
112.4150318287879
107.08660836005099
103.89583406426581
102.07744791925138
101.08929524630967
100.57625503298847
100.32135520019217
100.20011244352818
100.14521279646212
100.12249310218283
100.11634843980895
100.12207661513284
100.14330661300251
100.19376814968408
100.3039030482771
100.53398618139715
100.99619589563451
101.88780633843865
103.53531878891276
106.4438799046817
111.33778947115646
119.16883512870851
131.06573569595332
148.2072296669616
171.62800426855458
202.0016274697728
207.8088737100615
176.30277719190025
151.76171392167177
133.6210195473537
120.9103690195973
112.47006088752666
107.15502073046947
103.9771035796383
102.17015990862635
101.1914421115105
100.6856270522459
100.43586723768207
100.3180318668492
100.26524014653181
100.24374195622613
100.23826453844988
100.24434095797906
100.26574998576585
100.31630795519463
100.42650263881247
100.65663161437865
101.11888668771826
102.01055680205843
103.65818033511901
106.56699602984406
111.46153548844416
119.29416199078337
131.1948649893392
148.34531056160031
171.78618958839058
202.20298542748708
207.83235310124473
176.3396809053924
151.8166165619304
133.6984380925261
121.01387491710646
112.601528830829
107.31416799567099
104.16158999686685
102.37607869078077
101.41415577790602
100.92055166223386
100.67904214813194
100.56639687724913
100.51665075248752
100.4968243401529
100.4922085804367
100.49870496709242
100.5203106120712
100.57096052759694
100.68120312077413
100.9113678756656
101.37367135908623
102.26544426277074
103.91331707651094
106.82276078139283
111.71885711876456
119.55526897939282
131.4648192127629
148.6351356628432
172.11872133663164
202.62297842069083
207.89294354343238
176.43226334955222
151.95089312444787
133.8827072719281
121.25367223490672
112.89808272905402
107.6642253942613
104.5581911010164
102.81009083511253
101.87601706185505
101.40163542178897
101.1724569691775
101.06717351894667
101.02152699523629
101.00383557491223
101.00026285900098
101.00723997841234
101.02905720188281
101.07980016772663
101.19009261211721
101.42030893976472
101.88271488560545
102.77474087511051
104.42325228151434
107.33427757430502
112.23418874401557
120.07945037905166
132.00883671297908
149.22170184371421
172.79243844281845
203.46644138954622
208.04016619474842
176.65191706650117
152.26101748777893
134.29696498780527
121.77820714187169
113.52999487111953
108.39239900895885
105.36589376140677
103.67850777035146
102.7873456512473
102.34108810403046
102.12903148376368
102.03344885311577
101.9929305374625
101.97777561431768
101.97538081379456
101.98287448949065
102.00490996927566
102.05575123776961
102.16611394349701
102.39644355329156
102.85911740300236
103.75181008987943
105.40195792537106
108.31688369160031
113.22580529496341
121.09110846301155
133.06329909392446
150.36360450506731
174.10446507524023
205.09250098713466
208.37762930095656
177.14306248716272
152.93604664461412
135.17425049655378
122.85940763327704
114.79992015324105
109.82295538789795
106.92248821048406
105.32650213329742
104.49667683008593
104.08857673657062
103.89856188124877
103.81483194258324
103.78026434339023
103.76790737367182
103.7667506779331
103.774765340576
103.79701956234005
103.84797866965255
103.9584781459777
104.18909871631953
104.65248188401658
105.54689757584902
107.20111826194307
110.12536602294315
115.05484107801077
122.9637508870659
135.02452058114645
152.4965279081762
176.55367390274563
208.09294966050464
209.10691544709354
178.17660460332417
154.31781849385825
136.92066930108118
124.95518225964682
117.20263336169
112.47368524775277
109.75811946398682
108.2895075345553
107.54082672372712
107.18061654679074
107.01684968040898
106.9465221030693
106.91835134280277
106.90885940567578
106.90891477425168
106.91742648734467
106.93990744049024
106.99105048176735
107.10187613501168
107.33326124901085
107.79848009428453
108.6972007677455
110.3611906430901
113.3068236791067
118.28129617332203
126.2809475528462
138.51650678395228
156.3089233174579
180.92285019250312
213.37518868549313
210.5874385060657
180.21779968777543
156.97063632715867
140.181661933505
128.76865496214006
121.47659236697825
117.10131985786668
114.63649517142053
113.33186406003874
112.68227680628937
112.37753975739165
112.2426349653062
112.18631465232444
112.16450814996197
112.15773918449656
112.15890740095064
112.16788545218519
112.19064613571682
112.24216916904342
112.35382604978273
112.58717820592354
113.05697897442975
113.96603567813254
115.65250355253343
118.64509719345982
123.71358525895128
131.89298492656326
144.4557417545479
162.81330396379957
188.34997956015704
222.22046710085746
213.40503603521222
183.9936245131812
161.73872034844769
145.88357945978225
135.27389807221235
128.61833425760426
124.70885304280527
122.5575889033141
121.44739437221816
120.90920785078131
120.66364974186438
120.55800653526688
120.51520714866962
120.49926588193505
120.49490680666226
120.49705067436136
120.5065060770935
120.52973843992349
120.58217510623763
120.69594260402843
120.93417807959771
121.41494531792344
122.34774038258267
124.08356096075998
127.17438242997311
132.42945193659725
140.9460258473263
154.08665951797263
173.3806690669671
200.34750169357753
236.26861656356908
218.42403608488806
190.5266438543563
169.7519402868254
155.2093063194254
145.6712620345021
139.82894150715865
136.48449637339516
134.69349167142562
133.7949506568296
133.3717951579722
133.18430377040517
133.10599781433012
133.0752519405014
133.06432442360972
133.0619770632054
133.06499493851697
133.0750850653297
133.09933777421284
133.15403854044825
133.27299805029574
133.52284630323595
134.02866906053356
135.0133841245176
136.85216476628315
140.13771860834976
145.74281240610478
154.85529852080677
168.95364602253025
189.69611620478912
218.7194033567767
257.37581018494603
226.78931377107588
201.0972117476701
182.3337523955375
169.4644308691237
161.25710861815713
156.37126498806538
153.6546803345352
152.24244909587776
151.55488694252185
151.24067714694078
151.10555796939903
151.0507903257071
151.02998972038117
151.02306647285633
151.02236271447526
151.0263168911285
151.0375835630733
151.06426788816998
151.12446548907917
151.25566314657576
151.53183978154993
152.09209044035896
153.18450330681745
155.22649776628165
158.87630017419082
165.09919142894734
175.19923572597276
190.77921982570757
213.59872267716554
245.33578373256555
287.3086503390234
239.85830859675954
217.12026135382376
200.71946873183367
189.89485155400234
183.20690766658564
179.34702706507167
177.26626947172397
176.21748678699075
175.72227948626744
175.5026931432127
175.41101826703374
175.37495416235978
175.36178018642013
175.3579218037869
175.3586990275964
175.36407072438448
175.37796072365822
175.41044407062114
175.48347059607005
175.64217212991
175.97506384453283
176.64732693595536
177.95079496127866
180.37064599997692
184.6604944018452
191.9046454908432
203.53234938620125
221.2425346978679
246.80858784001796
281.7616843386181
327.26162710825014
259.4493753344877
239.36454994514372
225.98367605908885
217.4300840435749
212.3105214981946
209.4479424293135
207.95258584959893
207.22184966833046
206.88707817254115
206.74292195941229
206.68444528049056
206.66215688483015
206.6545084032679
206.6530801877104
206.65566595136815
206.66390378060285
206.68390000784385
206.72976710574687
206.8313602229334
207.04878539132912
207.49738978659238
208.38733803733302
210.08018048328654
213.15936056320825
218.50124060860205
227.31934488094913
241.1427301422616
261.6886235291396
290.6044062815571
329.0649382081768
376.10324188811313
