# vtk DataFile Version 2.0
Unstructured Grid Example
ASCII
DATASET UNSTRUCTURED_GRID

POINTS 961 float
0.150000006 -0.00839745998 0
0.146666661 -0.00839745998 0
0.143333331 -0.00839745998 0
0.140000001 -0.00839745998 0
0.13666667 -0.00839745998 0
0.13333334 -0.00839745998 0
0.129999995 -0.00839745998 0
0.126666665 -0.00839745998 0
0.123333335 -0.00839745998 0
0.119999997 -0.00839745998 0
0.116666667 -0.00839745998 0
0.113333337 -0.00839745998 0
0.109999999 -0.00839745998 0
0.106666669 -0.00839745998 0
0.103333332 -0.00839745998 0
0.100000001 -0.00839745998 0
0.0966666639 -0.00839745998 0
0.0933333337 -0.00839745998 0
0.0900000036 -0.00839745998 0
0.086666666 -0.00839745998 0
0.0833333358 -0.00839745998 0
0.0799999982 -0.00839745998 0
0.0766666681 -0.00839745998 0
0.0733333305 -0.00839745998 0
0.0700000003 -0.00839745998 0
0.0666666701 -0.00839745998 0
0.0633333325 -0.00839745998 0
0.0599999987 -0.00839745998 0
0.0566666685 -0.00839745998 0
0.0533333346 -0.00839745998 0
0.0500000007 -0.00839745998 0
0.148333326 -0.0112842107 0
0.144999996 -0.0112842107 0
0.141666666 -0.0112842107 0
0.138333336 -0.0112842107 0
0.135000005 -0.0112842107 0
0.13166666 -0.0112842107 0
0.12833333 -0.0112842107 0
0.125 -0.0112842107 0
0.12166667 -0.0112842107 0
0.118333332 -0.0112842107 0
0.115000002 -0.0112842107 0
0.111666664 -0.0112842107 0
0.108333334 -0.0112842107 0
0.104999997 -0.0112842107 0
0.101666667 -0.0112842107 0
0.0983333364 -0.0112842107 0
0.0949999988 -0.0112842107 0
0.0916666687 -0.0112842107 0
0.088333331 -0.0112842107 0
0.0850000009 -0.0112842107 0
0.0816666633 -0.0112842107 0
0.0783333331 -0.0112842107 0
0.075000003 -0.0112842107 0
0.0716666654 -0.0112842107 0
0.0683333352 -0.0112842107 0
0.0649999976 -0.0112842107 0
0.0616666675 -0.0112842107 0
0.0583333336 -0.0112842107 0
0.0549999997 -0.0112842107 0
0.0516666658 -0.0112842107 0
0.0483333319 -0.0112842107 0
0.146666661 -0.0141709624 0
0.143333331 -0.0141709624 0
0.140000001 -0.0141709624 0
0.13666667 -0.0141709624 0
0.13333334 -0.0141709624 0
0.129999995 -0.0141709624 0
0.126666665 -0.0141709624 0
0.123333335 -0.0141709624 0
0.119999997 -0.0141709624 0
0.116666667 -0.0141709624 0
0.113333337 -0.0141709624 0
0.109999999 -0.0141709624 0
0.106666669 -0.0141709624 0
0.103333332 -0.0141709624 0
0.100000001 -0.0141709624 0
0.0966666639 -0.0141709624 0
0.0933333337 -0.0141709624 0
0.0900000036 -0.0141709624 0
0.086666666 -0.0141709624 0
0.0833333358 -0.0141709624 0
0.0799999982 -0.0141709624 0
0.0766666681 -0.0141709624 0
0.0733333305 -0.0141709624 0
0.0700000003 -0.0141709624 0
0.0666666701 -0.0141709624 0
0.0633333325 -0.0141709624 0
0.0599999987 -0.0141709624 0
0.0566666685 -0.0141709624 0
0.0533333346 -0.0141709624 0
0.0500000007 -0.0141709624 0
0.0466666669 -0.0141709624 0
0.144999996 -0.0170577131 0
0.141666666 -0.0170577131 0
0.138333336 -0.0170577131 0
0.135000005 -0.0170577131 0
0.13166666 -0.0170577131 0
0.12833333 -0.0170577131 0
0.125 -0.0170577131 0
0.12166667 -0.0170577131 0
0.118333332 -0.0170577131 0
0.115000002 -0.0170577131 0
0.111666664 -0.0170577131 0
0.108333334 -0.0170577131 0
0.104999997 -0.0170577131 0
0.101666667 -0.0170577131 0
0.0983333364 -0.0170577131 0
0.0949999988 -0.0170577131 0
0.0916666687 -0.0170577131 0
0.088333331 -0.0170577131 0
0.0850000009 -0.0170577131 0
0.0816666633 -0.0170577131 0
0.0783333331 -0.0170577131 0
0.075000003 -0.0170577131 0
0.0716666654 -0.0170577131 0
0.0683333352 -0.0170577131 0
0.0649999976 -0.0170577131 0
0.0616666675 -0.0170577131 0
0.0583333336 -0.0170577131 0
0.0549999997 -0.0170577131 0
0.0516666658 -0.0170577131 0
0.0483333319 -0.0170577131 0
0.0450000018 -0.0170577131 0
0.143333331 -0.0199444648 0
0.140000001 -0.0199444648 0
0.13666667 -0.0199444648 0
0.13333334 -0.0199444648 0
0.129999995 -0.0199444648 0
0.126666665 -0.0199444648 0
0.123333335 -0.0199444648 0
0.119999997 -0.0199444648 0
0.116666667 -0.0199444648 0
0.113333337 -0.0199444648 0
0.109999999 -0.0199444648 0
0.106666669 -0.0199444648 0
0.103333332 -0.0199444648 0
0.100000001 -0.0199444648 0
0.0966666639 -0.0199444648 0
0.0933333337 -0.0199444648 0
0.0900000036 -0.0199444648 0
0.086666666 -0.0199444648 0
0.0833333358 -0.0199444648 0
0.0799999982 -0.0199444648 0
0.0766666681 -0.0199444648 0
0.0733333305 -0.0199444648 0
0.0700000003 -0.0199444648 0
0.0666666701 -0.0199444648 0
0.0633333325 -0.0199444648 0
0.0599999987 -0.0199444648 0
0.0566666685 -0.0199444648 0
0.0533333346 -0.0199444648 0
0.0500000007 -0.0199444648 0
0.0466666669 -0.0199444648 0
0.043333333 -0.0199444648 0
0.141666666 -0.0228312165 0
0.138333336 -0.0228312165 0
0.135000005 -0.0228312165 0
0.13166666 -0.0228312165 0
0.12833333 -0.0228312165 0
0.125 -0.0228312165 0
0.12166667 -0.0228312165 0
0.118333332 -0.0228312165 0
0.115000002 -0.0228312165 0
0.111666664 -0.0228312165 0
0.108333334 -0.0228312165 0
0.104999997 -0.0228312165 0
0.101666667 -0.0228312165 0
0.0983333364 -0.0228312165 0
0.0949999988 -0.0228312165 0
0.0916666687 -0.0228312165 0
0.088333331 -0.0228312165 0
0.0850000009 -0.0228312165 0
0.0816666633 -0.0228312165 0
0.0783333331 -0.0228312165 0
0.075000003 -0.0228312165 0
0.0716666654 -0.0228312165 0
0.0683333352 -0.0228312165 0
0.0649999976 -0.0228312165 0
0.0616666675 -0.0228312165 0
0.0583333336 -0.0228312165 0
0.0549999997 -0.0228312165 0
0.0516666658 -0.0228312165 0
0.0483333319 -0.0228312165 0
0.0450000018 -0.0228312165 0
0.0416666679 -0.0228312165 0
0.140000001 -0.0257179681 0
0.13666667 -0.0257179681 0
0.13333334 -0.0257179681 0
0.129999995 -0.0257179681 0
0.126666665 -0.0257179681 0
0.123333335 -0.0257179681 0
0.119999997 -0.0257179681 0
0.116666667 -0.0257179681 0
0.113333337 -0.0257179681 0
0.109999999 -0.0257179681 0
0.106666669 -0.0257179681 0
0.103333332 -0.0257179681 0
0.100000001 -0.0257179681 0
0.0966666639 -0.0257179681 0
0.0933333337 -0.0257179681 0
0.0900000036 -0.0257179681 0
0.086666666 -0.0257179681 0
0.0833333358 -0.0257179681 0
0.0799999982 -0.0257179681 0
0.0766666681 -0.0257179681 0
0.0733333305 -0.0257179681 0
0.0700000003 -0.0257179681 0
0.0666666701 -0.0257179681 0
0.0633333325 -0.0257179681 0
0.0599999987 -0.0257179681 0
0.0566666685 -0.0257179681 0
0.0533333346 -0.0257179681 0
0.0500000007 -0.0257179681 0
0.0466666669 -0.0257179681 0
0.043333333 -0.0257179681 0
0.0399999991 -0.0257179681 0
0.138333336 -0.0286047198 0
0.135000005 -0.0286047198 0
0.13166666 -0.0286047198 0
0.12833333 -0.0286047198 0
0.125 -0.0286047198 0
0.12166667 -0.0286047198 0
0.118333332 -0.0286047198 0
0.115000002 -0.0286047198 0
0.111666664 -0.0286047198 0
0.108333334 -0.0286047198 0
0.104999997 -0.0286047198 0
0.101666667 -0.0286047198 0
0.0983333364 -0.0286047198 0
0.0949999988 -0.0286047198 0
0.0916666687 -0.0286047198 0
0.088333331 -0.0286047198 0
0.0850000009 -0.0286047198 0
0.0816666633 -0.0286047198 0
0.0783333331 -0.0286047198 0
0.075000003 -0.0286047198 0
0.0716666654 -0.0286047198 0
0.0683333352 -0.0286047198 0
0.0649999976 -0.0286047198 0
0.0616666675 -0.0286047198 0
0.0583333336 -0.0286047198 0
0.0549999997 -0.0286047198 0
0.0516666658 -0.0286047198 0
0.0483333319 -0.0286047198 0
0.0450000018 -0.0286047198 0
0.0416666679 -0.0286047198 0
0.038333334 -0.0286047198 0
0.13666667 -0.0314914696 0
0.13333334 -0.0314914696 0
0.129999995 -0.0314914696 0
0.126666665 -0.0314914696 0
0.123333335 -0.0314914696 0
0.119999997 -0.0314914696 0
0.116666667 -0.0314914696 0
0.113333337 -0.0314914696 0
0.109999999 -0.0314914696 0
0.106666669 -0.0314914696 0
0.103333332 -0.0314914696 0
0.100000001 -0.0314914696 0
0.0966666639 -0.0314914696 0
0.0933333337 -0.0314914696 0
0.0900000036 -0.0314914696 0
0.086666666 -0.0314914696 0
0.0833333358 -0.0314914696 0
0.0799999982 -0.0314914696 0
0.0766666681 -0.0314914696 0
0.0733333305 -0.0314914696 0
0.0700000003 -0.0314914696 0
0.0666666701 -0.0314914696 0
0.0633333325 -0.0314914696 0
0.0599999987 -0.0314914696 0
0.0566666685 -0.0314914696 0
0.0533333346 -0.0314914696 0
0.0500000007 -0.0314914696 0
0.0466666669 -0.0314914696 0
0.043333333 -0.0314914696 0
0.0399999991 -0.0314914696 0
0.0366666652 -0.0314914696 0
0.135000005 -0.0343782231 0
0.13166666 -0.0343782231 0
0.12833333 -0.0343782231 0
0.125 -0.0343782231 0
0.12166667 -0.0343782231 0
0.118333332 -0.0343782231 0
0.115000002 -0.0343782231 0
0.111666664 -0.0343782231 0
0.108333334 -0.0343782231 0
0.104999997 -0.0343782231 0
0.101666667 -0.0343782231 0
0.0983333364 -0.0343782231 0
0.0949999988 -0.0343782231 0
0.0916666687 -0.0343782231 0
0.088333331 -0.0343782231 0
0.0850000009 -0.0343782231 0
0.0816666633 -0.0343782231 0
0.0783333331 -0.0343782231 0
0.075000003 -0.0343782231 0
0.0716666654 -0.0343782231 0
0.0683333352 -0.0343782231 0
0.0649999976 -0.0343782231 0
0.0616666675 -0.0343782231 0
0.0583333336 -0.0343782231 0
0.0549999997 -0.0343782231 0
0.0516666658 -0.0343782231 0
0.0483333319 -0.0343782231 0
0.0450000018 -0.0343782231 0
0.0416666679 -0.0343782231 0
0.038333334 -0.0343782231 0
0.0350000001 -0.0343782231 0
0.13333334 -0.0372649729 0
0.129999995 -0.0372649729 0
0.126666665 -0.0372649729 0
0.123333335 -0.0372649729 0
0.119999997 -0.0372649729 0
0.116666667 -0.0372649729 0
0.113333337 -0.0372649729 0
0.109999999 -0.0372649729 0
0.106666669 -0.0372649729 0
0.103333332 -0.0372649729 0
0.100000001 -0.0372649729 0
0.0966666639 -0.0372649729 0
0.0933333337 -0.0372649729 0
0.0900000036 -0.0372649729 0
0.086666666 -0.0372649729 0
0.0833333358 -0.0372649729 0
0.0799999982 -0.0372649729 0
0.0766666681 -0.0372649729 0
0.0733333305 -0.0372649729 0
0.0700000003 -0.0372649729 0
0.0666666701 -0.0372649729 0
0.0633333325 -0.0372649729 0
0.0599999987 -0.0372649729 0
0.0566666685 -0.0372649729 0
0.0533333346 -0.0372649729 0
0.0500000007 -0.0372649729 0
0.0466666669 -0.0372649729 0
0.043333333 -0.0372649729 0
0.0399999991 -0.0372649729 0
0.0366666652 -0.0372649729 0
0.0333333351 -0.0372649729 0
0.13166666 -0.0401517227 0
0.12833333 -0.0401517227 0
0.125 -0.0401517227 0
0.12166667 -0.0401517227 0
0.118333332 -0.0401517227 0
0.115000002 -0.0401517227 0
0.111666664 -0.0401517227 0
[...]
POINT_DATA 961
SCALARS Temp float 1
LOOKUP_TABLE default
380.7710207565478
331.45600138515067
291.50330144128566
261.4801777307342
240.18309956249976
225.89920297924255
216.826833419497
211.359220682982
208.22500462951035
206.51148242588485
205.61544211255415
205.1659594136776
204.94904065136308
204.84805521415763
204.80259731460893
204.78280426953032
204.7745927907067
204.77179628348117
204.77250975973072
204.7782074790479
204.7955885423159
204.84252112705528
204.96129294851517
205.24418587557273
205.8768186988775
207.20130419516846
209.79087818186147
214.51110253792356
222.5288069471207
235.2394092943074
254.39454730400217
331.4560426459675
284.3837584677122
248.05940167954137
221.45945975954115
203.0359152071192
190.955053726101
183.44379906229975
179.0064946902927
176.50966502872308
175.16780427560357
174.47707300971325
174.13553386251147
173.97286591389977
173.89804674068728
173.86475345530874
173.85046988958527
173.844811432891
173.8435795638271
173.84634794236217
173.8567695901541
173.88617421390504
173.96269211886465
174.15004483700372
174.58152497041078
175.51367029351206
177.39758872542495
180.952005294978
187.20444859692986
197.45706121935703
213.1554913127126
235.23942892473147
291.5032616425622
248.05938433375294
215.08034773066848
191.31722403793557
175.0772431780856
164.5463428014329
158.05844740841502
154.25371342085236
152.12501296792462
150.98590057905753
150.40134350685628
150.11290838758805
149.9757129199925
149.91266097715823
149.88464057797506
149.8727161150131
149.86830522814637
149.8683460332366
149.8737578959742
149.89087966104935
149.93703177929854
150.05315721941707
150.32825945058028
150.94093519656357
152.22031260540953
154.71929766087365
159.27696948606965
167.02991507998112
179.32502719688213
197.45705180271554
222.5288161272743
261.4801281166178
221.45943549828158
191.31722675952372
169.72686689401684
155.02762971400944
145.51341063971233
139.6531997251076
136.2130487008377
134.28456582433458
133.24990843064086
132.71735104795917
132.45372606628095
132.32791979725667
132.26992577728254
132.24411796763377
132.23324608923454
132.22965244722062
132.23112295912952
132.24007334480225
132.26613546332072
132.33380551871372
132.49858123465154
132.87640224500635
133.69072515666252
135.33663741414117
138.45003770902176
143.9536120837305
153.03720941088136
167.02992939391223
187.20446139808024
214.51109420700394
240.18305770800177
203.03589543415424
175.07723385437708
155.02768340314017
141.34216220149304
132.4524103690962
126.95401194658257
123.71194048017033
121.8864083587196
120.90276382219227
120.3944118959145
120.14183033528357
120.020890847686
119.96499108287325
119.94011145522833
119.92980309006396
119.92697730919303
119.93023375006676
119.94370900860339
119.98082377256875
120.07393686655712
120.29352835225545
120.78138297302253
121.80065003976136
123.79934397255231
127.47184971488286
133.78829731413862
143.95360598255633
159.2769653962952
180.95200317121686
209.790884379979
225.8991632646468
190.95508286755805
164.54638128061788
145.51338305746935
132.45239998701342
123.92339612495374
118.6218352790445
115.48164687948241
113.70635970686915
112.74642052464459
112.24881775786307
112.00093679902547
111.88199496952927
111.82694491082296
111.80249352526035
111.79260941918989
111.79065418953923
111.79609401628407
111.81496160741283
111.86468586225483
111.98546529980132
112.26173197775563
112.85755138863277
114.06735159471177
116.37643577957931
120.51432818094095
127.47184747141037
138.45003889158775
154.7193045774262
177.39756859474195
207.20129705729
216.82683935303245
183.44381808664073
158.05848756364028
139.6531674201051
126.95400023814757
118.6218326839422
113.42175934568007
110.33139838112035
108.57948592479538
107.6300738820412
107.13704145703451
106.89108281065356
106.77293731307505
106.71824182128103
106.694043496368
106.68457854250663
106.68363458959854
106.69158502229055
106.71640249639717
106.77939305253891
106.92785006530062
107.25793477395541
107.95093266236844
109.32313426599316
111.88269972784688
116.37643298890619
123.79933778183184
135.33662814208205
152.220310208942
175.51366787447714
205.87682766914298
211.35923437817277
179.00651875975572
154.25366244526836
136.21302126559675
123.71193851474808
115.4816544262672
110.33139673125952
107.26429274429246
105.52278562913602
104.57786179255194
104.08669784062756
103.8415001144665
103.72367057915427
103.66914662775463
103.64515431852158
103.6361427757165
103.63631979947876
103.6469543660827
103.67784098182602
103.75370320852626
103.92765711007617
104.3047499457034
105.07815853815828
106.57761706636741
109.32313293183398
114.06734980669535
121.8006511236254
133.69072609094954
150.94092172327802
174.5815061890066
205.24417611930087
208.22501071953565
176.50969665070278
152.1249686216075
134.28454866786709
121.88640961671231
113.7063528886906
108.57948471037537
105.52278985618243
103.78573774004792
102.8426558685848
102.35223126318158
102.10732885749928
101.9896323635138
101.93521795151133
101.91142654233849
101.90289802505264
101.90423775713403
101.91753270886667
101.95414351123723
102.04153407872627
102.23714551783628
102.65207566663109
103.48678904318649
105.07815974288552
107.95093272740161
112.85755056064656
120.78138176616622
132.87639834516008
150.3282630514574
174.15005118697945
204.9613115439371
206.51151572300964
175.16774077781153
150.9858791262589
133.2499057436939
120.90277508134768
112.74641981008209
107.63007774050483
104.57786109939477
102.84265526103654
101.90030410704348
101.41016670363467
101.16538112381197
101.04775275696386
100.99342992806348
100.96984167977243
100.96179965867229
100.96426150537451
100.98000028762283
101.02160582419587
101.11853936019207
101.33114357114569
101.77419902599544
102.6520748787635
104.30474964887041
107.25793466978796
112.2617316712217
120.29352842200777
132.49856593326803
150.05314327358792
173.96267566140014
204.84251232315353
205.61549947409836
174.47702408027342
150.4013327574603
132.71735612954163
120.39440412935889
112.24881909392298
107.13704689523412
104.086697964613
102.35223221244878
101.41016664972452
100.92014158760746
100.67540880853684
100.5578287144161
100.5035933640926
100.48020506630449
100.47262213986052
100.47609095160198
100.49391220097982
100.539555343359
100.64380162523823
100.86874422547244
101.33114424269219
102.23714577051037
103.92765635999933
106.92784880156067
111.98546417533952
120.07393417825942
132.33380397938757
149.93703659029637
173.88618266079993
204.7955752531587
205.16590085744872
174.13550278711025
150.11290727462773
132.45373798821646
120.14182378114982
112.00093987080376
106.89107998400537
103.84150066461476
102.10732717408229
101.16538113926948
100.67540925488197
100.43071281314222
100.3131792162868
100.25903169551839
100.23583215833195
100.2286556765673
100.23296633847444
100.25243613283664
100.30110782749331
100.4105514960261
100.64380210259002
101.11853973788146
102.04153374674604
103.75370469558855
106.77939549329373
111.86469080603315
119.98081979897256
132.26613029175965
149.89088068953956
173.8567711349709
204.7782213837814
204.9490145498433
173.9728621863319
149.97573045238775
132.32790909428815
120.02089286555966
111.88200449146814
106.77293671439567
103.72367309205757
101.98963151055209
101.04775324383375
100.55782845614566
100.31317907478886
100.19570435761877
100.14165088160078
100.11862589784583
100.11179079775297
100.11676063965258
100.13744658308532
100.18823093395984
100.30110750335741
100.53955523080124
101.02160635944027
101.95414224854206
103.67784047112545
106.71640150781523
111.81495986100093
119.94370758858288
132.24007191023838
149.87376409109174
173.8463255380206
204.7725132824028
204.84803439486006
173.89804656611565
149.91268340757952
132.26991566738835
119.96499426617622
111.82693949766447
106.71824208797574
103.6691447922252
101.93521742127112
100.99343069074729
100.50359303181592
100.25903166893718
100.14165084968977
100.08771248414104
100.06485531214726
100.05830039589306
100.06375986206244
100.08528674190323
100.1374465372007
100.25243621661195
100.49391214288693
100.98000061801018
101.91753259478189
103.64695577015338
106.69158770546478
111.79609156091512
119.93023030787849
132.23111861017503
149.86834701325876
173.8435833005142
204.77179569900025
204.80259707756423
173.864772609638
149.88462813348846
132.24411852541297
119.9401241648949
111.80249212797032
106.69404773469651
103.64515384300019
101.91142650200383
100.96984151838578
100.48020504914587
100.23583225827323
100.11862586622347
100.06485534156855
100.04218135216756
100.03586540895158
100.04168053522234
100.06375983591325
100.11676056442066
100.23296622207206
100.47609097058175
100.96426127086153
101.90423658319209
103.63631930287455
106.6836334583155
111.79065343626526
119.92697663414678
132.22965212459312
149.86829052873603
173.84480774675384
204.77458479723887
204.78280475743563
173.85049151742115
149.87270401310903
132.23324862352473
119.92979380016958
111.79260910974178
106.68457492235832
103.6361429121981
101.9028986182782
100.96179946770808
100.4726221876622
100.22865543008513
100.11179080426528
100.05830035002778
100.03586540928688
100.02978129666947
100.03586542063219
100.05830036723023
100.1117908842946
100.22865553963237
100.47262204925931
100.96180003808746
101.90289800182957
103.63614438175634
106.6845770026654
111.79260727105935
119.92980102689644
132.23324213558237
149.87272058056016
173.85046057755142
204.7828066786834
204.77461363223506
173.8447881957487
149.86831123891562
132.22966908554127
119.92697432744194
111.79066028768843
106.68363359920345
103.63632110234313
101.90423657534672
100.96426188427719
100.47609136339003
100.23296621176186
100.11676074336664
100.06375984831337
100.04168054628501
100.03586542944714
100.04218137075605
100.06485528556756
100.11862589521223
100.23583208264222
100.48020474710577
100.96984150557323
101.91142545655575
103.6451536403534
106.69404327533782
111.8024932631189
119.94011184645775
132.24410222858526
149.88463788879886
173.86473752175502
204.80258915311282
204.77182759922846
173.84356196513073
149.86835587009028
132.23110727714283
119.9302327198457
111.79608775534439
106.69158498804859
103.64695675460399
101.9175314867299
100.98000086982125
100.49391191651104
100.25243605145445
100.13744649861613
100.08528671538453
100.06375988224148
100.05830040285531
100.06485531899432
100.08771252038213
100.14165089802698
100.25903159131379
100.50359330393961
100.99343031171485
101.93521814854478
103.66914580000561
106.71824063029445
111.82694337932256
119.96498837383048
132.26992447313026
149.91265306037005
173.8980381260729
204.848056291113
204.77247718011904
173.84633793362428
149.87377408668846
132.24005846198546
119.94371115867678
111.8149556429008
106.71640193866574
103.67783890632376
101.95414256201973
101.02160667323956
100.53955497232094
100.30110774696716
100.18823088745165
100.13744655445835
100.11676063555312
100.1117907945128
100.11862587892765
100.1416509135837
100.19570430952608
100.31317901787574
100.55782863264983
101.04775305623818
101.98963208665616
103.72367169521199
106.77293947822649
111.88199967601048
120.02088645947934
132.3279221007456
149.97571253645862
173.97286587910583
204.94905067484274
204.77820027977106
173.85678189479222
149.89086317348517
132.26613293112248
119.98081330068882
111.86468617618226
106.77939707654336
103.75370272577327
102.04153422545741
101.11853931738679
100.64380178891422
100.41055141748286
100.30110776681138
100.25243618443264
100.23296635552649
100.22865567926614
100.23583217260517
100.25903171341359
100.31317917188856
100.43071293540115
100.67540903163702
101.16538147287315
102.10732759117379
103.84149957471102
106.89108184561427
112.00093525133683
120.14182873805304
132.45371490176916
150.11290099620686
174.13552472455294
205.16596001949208
204.79558422141966
173.88619182830718
149.93701598256786
132.33380826064757
120.0739273681223
111.98546486270192
106.9278461275914
103.92765696604546
102.2371463823112
101.33114376861018
100.86874472041144
100.64380156073626
100.53955529224966
100.49391218540858
100.47609092512161
100.47262214219406
100.48020510113767
100.50359333184986
100.55782869595832
100.67540888654348
100.92014146124157
101.41016690214327
102.35223131640677
104.08669940690432
107.13704366061168
112.24881488475877
120.39441331138313
132.71734580305036
150.40134310687793
174.47707314135891
205.61543893318995
204.8425175260595
173.96264845472083
150.05314605432235
132.49855611551808
120.29352138110393
112.26173430327303
107.25793148687963
104.30475056492953
102.6520741769791
101.77419848213475
101.33114342520824
101.11853922745797
101.02160593641311
100.9800003579147
100.96426151553938
100.96179966282305
100.96984167999797
100.99342990118711
101.04775281328368
101.16538100822227
101.41016688174571
101.90030427636216
102.84265463034716
104.57786218234095
107.63007511476864
112.74642395246214
120.90276166561806
133.2499071771527
150.9859086571745
175.16781532786092
206.51149930449483
204.96133891923384
174.15004178724084
150.32828292776105
132.8763988843916
120.78139041657657
112.85755155284085
107.95093756459931
105.07816365272419
103.48679045732534
102.65207853053306
102.23714724788293
102.04153570442772
101.95414514085898
101.9175342737219
101.90423942922887
101.90289974878687
101.91142813827541
101.93521960885698
101.98963401061243
102.10733032167879
102.35223283268704
102.84265662916488
103.78573946478325
105.52278836211896
108.57948208473148
113.7063580134745
121.88640149310449
134.28455521638884
152.12500538330653
176.509637127981
208.22498694021013
205.24416896949376
174.58153066954583
150.94092333048323
133.69072734614227
121.80066350760553
114.06735120973457
109.3231393488653
106.57761995000625
105.07816114521444
104.30475290154442
103.92765991036387
103.75370645375433
103.67784420499666
103.64695739853582
103.63632278274694
103.6361457317765
103.64515727524905
103.66914962356078
103.72367347686848
103.84150316825368
104.08670067897592
104.57786411161348
105.52278862939568
107.26429317638836
110.33140079639773
115.48164645932285
123.71193945944891
136.2130407089248
154.25371106532074
179.0064880564128
211.35921857163612
205.87681179646688
175.513686732161
152.22030561620298
135.33663689061552
123.79933675146334
116.37643892255167
111.88270500443159
109.32313591601144
107.95093699494022
107.25793747025489
106.92785255523172
106.77939552397784
106.7164048003691
106.69158762083946
106.68363732617715
106.68458100336424
106.6940461630784
106.71824442234262
106.7729397825441
106.89108542478033
107.13704374941607
107.63007682174178
108.57948730012507
110.33139989390554
113.42176625527972
118.6218322084099
126.95401081908791
139.65320003250045
158.0584437954269
183.44379635166118
216.82684127729024
207.20130482669703
177.39755320636755
154.7192929212645
138.45004574255933
127.4718415007543
120.51433109486324
116.37643450830603
114.06735049377572
112.85755106399462
112.26173149451944
111.98546575607435
111.8646864674667
111.81496180393039
111.79609408484525
111.79065418414388
111.7926094932478
111.80249363654956
111.8269450182889
111.88199533075593
112.00093687215488
112.24881784582257
112.74642126200412
113.70635935921585
115.48164935972248
118.62183127419073
123.92339905196069
132.4524166808037
145.51342067427197
164.54635547629047
190.95506186379066
225.89916572935556
209.79088272166086
180.95197782625428
159.27696064460946
143.953590436091
133.78829304739637
127.47184571610433
123.79933533680311
121.80064579748728
120.78137671133123
120.29352176552759
120.0739302080593
119.98081674140685
119.94370259014615
119.93022761722081
119.92697066005807
119.9297968726072
119.94010507744682
119.96498454673163
120.02088449679657
120.14182394116615
120.39440589786055
120.90275703620506
121.88640249722896
123.71193805242696
126.954005152598
132.4524114334356
141.3421782313284
155.0276395290612
175.0772018239259
203.0358750770683
240.1830586361385
214.51110550657128
187.20447441114936
167.02996300686365
153.03722475057322
143.9536371719071
138.45005619966318
135.33665550679265
133.69074383325972
132.87642042356262
132.49860085855266
132.33382547475233
132.2661546957503
132.24009230726807
132.2311417598546
132.22967147809868
132.23326512169913
132.24413703911318
132.26994519475022
132.32793864198996
132.45374509465768
132.71737036515773
133.24992676804422
134.2845852277219
136.21306315465742
139.65321710721082
145.5134345807996
155.02766351027532
169.72684322280605
191.3171948003293
221.45940764931112
261.4801322954419
222.52882621812552
197.45708411690427
179.32504281126265
167.02994171443873
159.27699480072903
154.71931604068874
152.2203360402142
150.94095600391952
150.32827969221566
150.0531772393294
149.93705105860033
149.89089985199027
149.87377853231007
149.86836595790678
149.8683258215597
149.87273642241036
149.88466065207874
149.9126811850224
149.97573317736249
150.11292868689864
150.40136297767074
150.98592089961977
152.1250344625765
154.25373033561164
158.0584676184754
164.54636939008236
175.07721690448076
191.31719734094438
215.08031580130512
248.05935416518193
291.5032598274168
235.23943126019537
213.15551482580366
197.45706424025704
187.20446298285802
180.95201255446725
177.39759579848396
175.51367816561194
174.58153235902427
174.15005437456114
173.96270200123368
173.8861830064117
173.8567780699218
173.84635620937877
173.84358833041168
173.84482009678786
173.8504786281106
173.86476260543077
173.89805509419693
173.97287471162292
174.13554285299364
174.47708131345857
175.16781316290277
176.50967066179246
179.00650249960344
183.44381092541818
190.95507183065263
203.03588329207267
221.45941519064067
248.05934822235875
284.3837057095283
331.4559384968097
254.39456370588934
235.23940403678796
222.5288131700706
214.51110776384797
209.79087553007645
207.20130736282343
205.8768187406939
205.24418658488028
204.96129336240114
204.842519527846
204.79558842287625
204.7782076681822
204.77250973936958
204.77179674896652
204.77459291223647
204.78280439935915
204.80259683706583
204.84805558437452
204.9490406876096
205.16595874264922
205.61544237443243
206.51148372483192
208.22500284551623
211.35922066188894
216.82683612333074
225.89916081331552
240.18305727308092
261.4801241073686
291.503236842269
331.45592056545235
380.77060998135613
