# vtk DataFile Version 2.0
Unstructured Grid Example
ASCII
DATASET UNSTRUCTURED_GRID

POINTS 961 float
0.150000006 -0.00839745998 0
0.146666661 -0.00839745998 0
0.143333331 -0.00839745998 0
0.140000001 -0.00839745998 0
0.13666667 -0.00839745998 0
0.13333334 -0.00839745998 0
0.129999995 -0.00839745998 0
0.126666665 -0.00839745998 0
0.123333335 -0.00839745998 0
0.119999997 -0.00839745998 0
0.116666667 -0.00839745998 0
0.113333337 -0.00839745998 0
0.109999999 -0.00839745998 0
0.106666669 -0.00839745998 0
0.103333332 -0.00839745998 0
0.100000001 -0.00839745998 0
0.0966666639 -0.00839745998 0
0.0933333337 -0.00839745998 0
0.0900000036 -0.00839745998 0
0.086666666 -0.00839745998 0
0.0833333358 -0.00839745998 0
0.0799999982 -0.00839745998 0
0.0766666681 -0.00839745998 0
0.0733333305 -0.00839745998 0
0.0700000003 -0.00839745998 0
0.0666666701 -0.00839745998 0
0.0633333325 -0.00839745998 0
0.0599999987 -0.00839745998 0
0.0566666685 -0.00839745998 0
0.0533333346 -0.00839745998 0
0.0500000007 -0.00839745998 0
0.148333326 -0.0112842107 0
0.144999996 -0.0112842107 0
0.141666666 -0.0112842107 0
0.138333336 -0.0112842107 0
0.135000005 -0.0112842107 0
0.13166666 -0.0112842107 0
0.12833333 -0.0112842107 0
0.125 -0.0112842107 0
0.12166667 -0.0112842107 0
0.118333332 -0.0112842107 0
0.115000002 -0.0112842107 0
0.111666664 -0.0112842107 0
0.108333334 -0.0112842107 0
0.104999997 -0.0112842107 0
0.101666667 -0.0112842107 0
0.0983333364 -0.0112842107 0
0.0949999988 -0.0112842107 0
0.0916666687 -0.0112842107 0
0.088333331 -0.0112842107 0
0.0850000009 -0.0112842107 0
0.0816666633 -0.0112842107 0
0.0783333331 -0.0112842107 0
0.075000003 -0.0112842107 0
0.0716666654 -0.0112842107 0
0.0683333352 -0.0112842107 0
0.0649999976 -0.0112842107 0
0.0616666675 -0.0112842107 0
0.0583333336 -0.0112842107 0
0.0549999997 -0.0112842107 0
0.0516666658 -0.0112842107 0
0.0483333319 -0.0112842107 0
0.146666661 -0.0141709624 0
0.143333331 -0.0141709624 0
0.140000001 -0.0141709624 0
0.13666667 -0.0141709624 0
0.13333334 -0.0141709624 0
0.129999995 -0.0141709624 0
0.126666665 -0.0141709624 0
0.123333335 -0.0141709624 0
0.119999997 -0.0141709624 0
0.116666667 -0.0141709624 0
0.113333337 -0.0141709624 0
0.109999999 -0.0141709624 0
0.106666669 -0.0141709624 0
0.103333332 -0.0141709624 0
0.100000001 -0.0141709624 0
0.0966666639 -0.0141709624 0
0.0933333337 -0.0141709624 0
0.0900000036 -0.0141709624 0
0.086666666 -0.0141709624 0
0.0833333358 -0.0141709624 0
0.0799999982 -0.0141709624 0
0.0766666681 -0.0141709624 0
0.0733333305 -0.0141709624 0
0.0700000003 -0.0141709624 0
0.0666666701 -0.0141709624 0
0.0633333325 -0.0141709624 0
0.0599999987 -0.0141709624 0
0.0566666685 -0.0141709624 0
0.0533333346 -0.0141709624 0
0.0500000007 -0.0141709624 0
0.0466666669 -0.0141709624 0
0.144999996 -0.0170577131 0
0.141666666 -0.0170577131 0
0.138333336 -0.0170577131 0
0.135000005 -0.0170577131 0
0.13166666 -0.0170577131 0
0.12833333 -0.0170577131 0
0.125 -0.0170577131 0
0.12166667 -0.0170577131 0
0.118333332 -0.0170577131 0
0.115000002 -0.0170577131 0
0.111666664 -0.0170577131 0
0.108333334 -0.0170577131 0
0.104999997 -0.0170577131 0
0.101666667 -0.0170577131 0
0.0983333364 -0.0170577131 0
0.0949999988 -0.0170577131 0
0.0916666687 -0.0170577131 0
0.088333331 -0.0170577131 0
0.0850000009 -0.0170577131 0
0.0816666633 -0.0170577131 0
0.0783333331 -0.0170577131 0
0.075000003 -0.0170577131 0
0.0716666654 -0.0170577131 0
0.0683333352 -0.0170577131 0
0.0649999976 -0.0170577131 0
0.0616666675 -0.0170577131 0
0.0583333336 -0.0170577131 0
0.0549999997 -0.0170577131 0
0.0516666658 -0.0170577131 0
0.0483333319 -0.0170577131 0
0.0450000018 -0.0170577131 0
0.143333331 -0.0199444648 0
0.140000001 -0.0199444648 0
0.13666667 -0.0199444648 0
0.13333334 -0.0199444648 0
0.129999995 -0.0199444648 0
0.126666665 -0.0199444648 0
0.123333335 -0.0199444648 0
0.119999997 -0.0199444648 0
0.116666667 -0.0199444648 0
0.113333337 -0.0199444648 0
0.109999999 -0.0199444648 0
0.106666669 -0.0199444648 0
0.103333332 -0.0199444648 0
0.100000001 -0.0199444648 0
0.0966666639 -0.0199444648 0
0.0933333337 -0.0199444648 0
0.0900000036 -0.0199444648 0
0.086666666 -0.0199444648 0
0.0833333358 -0.0199444648 0
0.0799999982 -0.0199444648 0
0.0766666681 -0.0199444648 0
0.0733333305 -0.0199444648 0
0.0700000003 -0.0199444648 0
0.0666666701 -0.0199444648 0
0.0633333325 -0.0199444648 0
0.0599999987 -0.0199444648 0
0.0566666685 -0.0199444648 0
0.0533333346 -0.0199444648 0
0.0500000007 -0.0199444648 0
0.0466666669 -0.0199444648 0
0.043333333 -0.0199444648 0
0.141666666 -0.0228312165 0
0.138333336 -0.0228312165 0
0.135000005 -0.0228312165 0
0.13166666 -0.0228312165 0
0.12833333 -0.0228312165 0
0.125 -0.0228312165 0
0.12166667 -0.0228312165 0
0.118333332 -0.0228312165 0
0.115000002 -0.0228312165 0
0.111666664 -0.0228312165 0
0.108333334 -0.0228312165 0
0.104999997 -0.0228312165 0
0.101666667 -0.0228312165 0
0.0983333364 -0.0228312165 0
0.0949999988 -0.0228312165 0
0.0916666687 -0.0228312165 0
0.088333331 -0.0228312165 0
0.0850000009 -0.0228312165 0
0.0816666633 -0.0228312165 0
0.0783333331 -0.0228312165 0
0.075000003 -0.0228312165 0
0.0716666654 -0.0228312165 0
0.0683333352 -0.0228312165 0
0.0649999976 -0.0228312165 0
0.0616666675 -0.0228312165 0
0.0583333336 -0.0228312165 0
0.0549999997 -0.0228312165 0
0.0516666658 -0.0228312165 0
0.0483333319 -0.0228312165 0
0.0450000018 -0.0228312165 0
0.0416666679 -0.0228312165 0
0.140000001 -0.0257179681 0
0.13666667 -0.0257179681 0
0.13333334 -0.0257179681 0
0.129999995 -0.0257179681 0
0.126666665 -0.0257179681 0
0.123333335 -0.0257179681 0
0.119999997 -0.0257179681 0
0.116666667 -0.0257179681 0
0.113333337 -0.0257179681 0
0.109999999 -0.0257179681 0
0.106666669 -0.0257179681 0
0.103333332 -0.0257179681 0
0.100000001 -0.0257179681 0
0.0966666639 -0.0257179681 0
0.0933333337 -0.0257179681 0
0.0900000036 -0.0257179681 0
0.086666666 -0.0257179681 0
0.0833333358 -0.0257179681 0
0.0799999982 -0.0257179681 0
0.0766666681 -0.0257179681 0
0.0733333305 -0.0257179681 0
0.0700000003 -0.0257179681 0
0.0666666701 -0.0257179681 0
0.0633333325 -0.0257179681 0
0.0599999987 -0.0257179681 0
0.0566666685 -0.0257179681 0
0.0533333346 -0.0257179681 0
0.0500000007 -0.0257179681 0
0.0466666669 -0.0257179681 0
0.043333333 -0.0257179681 0
0.0399999991 -0.0257179681 0
0.138333336 -0.0286047198 0
0.135000005 -0.0286047198 0
0.13166666 -0.0286047198 0
0.12833333 -0.0286047198 0
0.125 -0.0286047198 0
0.12166667 -0.0286047198 0
0.118333332 -0.0286047198 0
0.115000002 -0.0286047198 0
0.111666664 -0.0286047198 0
0.108333334 -0.0286047198 0
0.104999997 -0.0286047198 0
0.101666667 -0.0286047198 0
0.0983333364 -0.0286047198 0
0.0949999988 -0.0286047198 0
0.0916666687 -0.0286047198 0
0.088333331 -0.0286047198 0
0.0850000009 -0.0286047198 0
0.0816666633 -0.0286047198 0
0.0783333331 -0.0286047198 0
0.075000003 -0.0286047198 0
0.0716666654 -0.0286047198 0
0.0683333352 -0.0286047198 0
0.0649999976 -0.0286047198 0
0.0616666675 -0.0286047198 0
0.0583333336 -0.0286047198 0
0.0549999997 -0.0286047198 0
0.0516666658 -0.0286047198 0
0.0483333319 -0.0286047198 0
0.0450000018 -0.0286047198 0
0.0416666679 -0.0286047198 0
0.038333334 -0.0286047198 0
0.13666667 -0.0314914696 0
0.13333334 -0.0314914696 0
0.129999995 -0.0314914696 0
0.126666665 -0.0314914696 0
0.123333335 -0.0314914696 0
0.119999997 -0.0314914696 0
0.116666667 -0.0314914696 0
0.113333337 -0.0314914696 0
0.109999999 -0.0314914696 0
0.106666669 -0.0314914696 0
0.103333332 -0.0314914696 0
0.100000001 -0.0314914696 0
0.0966666639 -0.0314914696 0
0.0933333337 -0.0314914696 0
0.0900000036 -0.0314914696 0
0.086666666 -0.0314914696 0
0.0833333358 -0.0314914696 0
0.0799999982 -0.0314914696 0
0.0766666681 -0.0314914696 0
0.0733333305 -0.0314914696 0
0.0700000003 -0.0314914696 0
0.0666666701 -0.0314914696 0
0.0633333325 -0.0314914696 0
0.0599999987 -0.0314914696 0
0.0566666685 -0.0314914696 0
0.0533333346 -0.0314914696 0
0.0500000007 -0.0314914696 0
0.0466666669 -0.0314914696 0
0.043333333 -0.0314914696 0
0.0399999991 -0.0314914696 0
0.0366666652 -0.0314914696 0
0.135000005 -0.0343782231 0
0.13166666 -0.0343782231 0
0.12833333 -0.0343782231 0
0.125 -0.0343782231 0
0.12166667 -0.0343782231 0
0.118333332 -0.0343782231 0
0.115000002 -0.0343782231 0
0.111666664 -0.0343782231 0
0.108333334 -0.0343782231 0
0.104999997 -0.0343782231 0
0.101666667 -0.0343782231 0
0.0983333364 -0.0343782231 0
0.0949999988 -0.0343782231 0
0.0916666687 -0.0343782231 0
0.088333331 -0.0343782231 0
0.0850000009 -0.0343782231 0
0.0816666633 -0.0343782231 0
0.0783333331 -0.0343782231 0
0.075000003 -0.0343782231 0
0.0716666654 -0.0343782231 0
0.0683333352 -0.0343782231 0
0.0649999976 -0.0343782231 0
0.0616666675 -0.0343782231 0
0.0583333336 -0.0343782231 0
0.0549999997 -0.0343782231 0
0.0516666658 -0.0343782231 0
0.0483333319 -0.0343782231 0
0.0450000018 -0.0343782231 0
0.0416666679 -0.0343782231 0
0.038333334 -0.0343782231 0
0.0350000001 -0.0343782231 0
0.13333334 -0.0372649729 0
0.129999995 -0.0372649729 0
0.126666665 -0.0372649729 0
0.123333335 -0.0372649729 0
0.119999997 -0.0372649729 0
0.116666667 -0.0372649729 0
0.113333337 -0.0372649729 0
0.109999999 -0.0372649729 0
0.106666669 -0.0372649729 0
0.103333332 -0.0372649729 0
0.100000001 -0.0372649729 0
0.0966666639 -0.0372649729 0
0.0933333337 -0.0372649729 0
0.0900000036 -0.0372649729 0
0.086666666 -0.0372649729 0
0.0833333358 -0.0372649729 0
0.0799999982 -0.0372649729 0
0.0766666681 -0.0372649729 0
0.0733333305 -0.0372649729 0
0.0700000003 -0.0372649729 0
0.0666666701 -0.0372649729 0
0.0633333325 -0.0372649729 0
0.0599999987 -0.0372649729 0
0.0566666685 -0.0372649729 0
0.0533333346 -0.0372649729 0
0.0500000007 -0.0372649729 0
0.0466666669 -0.0372649729 0
0.043333333 -0.0372649729 0
0.0399999991 -0.0372649729 0
0.0366666652 -0.0372649729 0
0.0333333351 -0.0372649729 0
0.13166666 -0.0401517227 0
0.12833333 -0.0401517227 0
0.125 -0.0401517227 0
0.12166667 -0.0401517227 0
0.118333332 -0.0401517227 0
0.115000002 -0.0401517227 0
0.111666664 -0.0401517227 0
[...]
POINT_DATA 961
SCALARS Temp float 1
LOOKUP_TABLE default
415.0833163474951
366.7235373550633
326.0743604398581
293.87367858275127
269.48469105039027
251.80734524172468
239.53911105948845
231.38072344245583
226.17682863565489
222.98897026532973
221.11075784801918
220.0447525886524
219.46094864922108
219.15194607805603
218.99371038761575
218.91548807237584
218.87895689839868
218.86513530089763
218.86740295787058
218.88953268423123
218.94870877573487
219.08457784944414
219.3762551812972
219.96915450575656
221.11160376479137
223.1970088078583
226.80086119468723
232.696122222103
241.8307055162822
255.2658440621349
274.3321994292492
366.72357676294274
319.9667992599088
282.18375174755073
252.86596523573346
231.08497345257487
215.5881949511329
205.0242560176485
198.11899530392898
193.78619483584671
191.17306522399113
189.65602153611601
188.8068827428819
188.34789025349508
188.1079489019452
187.9866267706729
187.92772517429955
187.90166972077307
187.89506453890516
187.9059160664789
187.94390160935546
188.0361535505571
188.24010019135085
188.66542169912844
189.50633336884883
191.08242631076172
193.88076743273916
198.5851230686475
206.07392104269195
217.371156036883
233.55458133136773
255.26586402185504
326.07431824840063
282.1837321053326
247.2223670745045
220.4838079001054
200.867903073067
187.06643557763232
177.750172079194
171.71236042586818
167.95159848113175
165.69755352967732
164.39574509994156
163.67017874889243
163.27934755067213
163.07566721174163
162.9731185430711
162.92401856986163
162.90393427662528
162.903199371127
162.92391063002896
162.982226420472
163.11685911075404
163.40555674304485
163.99139139307886
165.1189803260009
167.1767277958042
170.7348242668662
176.56224741968387
185.60288056239085
198.89290426869874
217.37114675816994
241.83071574251443
293.87362355439217
252.86593602852324
220.48380897569635
195.90191272242967
177.9740789168344
165.4150934880633
156.96245509815927
151.49383615360205
148.0899751929631
146.04951114002097
144.87004822053964
144.21177364177842
143.85659251550769
143.67122015369097
143.57798632658145
143.53404692262737
143.51810225141827
143.52336408331269
143.55603104809558
143.63944282671983
143.82509824783094
144.21231542419085
144.97776403945818
146.41365369309065
148.96851776057676
153.27798001758896
160.16742368170674
170.60686546616725
185.6028960979891
206.07393416720828
232.69611379514686
269.48464075554386
231.08494694941606
200.86788877104834
177.97414436738913
161.28646113679093
149.5885676534361
141.7028510772371
136.58923936870374
133.39748019943977
131.47824567290695
130.36526981707226
129.74209053194866
129.40481977081498
129.22840184995087
129.13980898932286
129.098957060088
129.08666245776809
129.0987055176786
129.14556220676155
129.2582213314453
129.5013694374556
129.9954779344945
130.948246385444
132.69281705470567
135.7249523026305
140.72533550892243
148.54917125350653
160.16741696157072
176.5622428299358
198.5851213617001
226.80086711512277
251.80729512248666
215.58823019334812
187.06648196672438
165.41506278826643
149.5885557308707
138.45670766895492
130.92489599952557
126.02231803063098
122.95091089404856
121.09749398050091
120.01914351958993
119.41354110981125
119.08495494362705
118.91284988855992
118.82673040886101
118.78817218114868
118.77963379719121
118.7993753923085
118.86224443649384
119.00688853567635
119.31060972471815
119.91299400659707
121.04798095258946
123.08064448501851
126.53982261639979
132.13272418668998
140.72533256116458
153.27798134549752
170.7348312402053
193.88074634157672
223.19700273774708
239.5391200173279
205.0242787565276
177.75021766074676
156.9624190756327
141.70283698103867
130.92489241916934
123.60371459880763
118.82101354766114
115.81498217971352
113.99583581583907
112.9348066704441
112.33768950461777
112.01320644179478
111.84322385305003
111.75864801217992
111.7221667609907
111.71766479220955
111.74580943593081
111.82569276128882
112.00310910246628
112.36651464237438
113.07137332146166
114.37188139138341
116.65557877507118
120.47168262107604
126.53981900181935
135.7249446747157
148.96850665666722
167.17672619717482
191.08242422177176
221.11161250140307
231.3807388645922
198.11902207956734
171.7123049276427
151.49380445374192
136.5892386102172
126.02232844751688
118.82101105455892
114.10352799650708
111.13157309480192
109.32958865741841
108.27690926153679
107.68376540674898
107.3612111510224
107.19237428354425
107.10898456624543
107.0745723692316
107.07431730989445
107.11114250405237
107.20800052644513
107.41687226899933
107.83531360829637
108.63088819361187
110.07200336723452
112.56029571061107
116.65557681556304
123.08064169549885
132.6928187894835
146.41365492595858
165.11896590214235
189.5063141567731
219.9691445083915
226.1768363697588
193.78622842442056
167.95155380641276
148.08995743453337
133.39748239218116
122.95090154519687
115.81497995976663
111.13158001442812
108.17672388045759
106.38302353752033
105.33424310455584
104.74292521169973
104.42131379849114
104.25321189734798
104.1708838663894
104.13855467975169
104.14256383771618
104.1878324604363
104.30058467094156
104.53775696233674
105.00373940174408
105.87452329583839
107.42749799552918
110.07200521584063
114.3718819359385
121.04798029774656
130.9482450277216
144.97775984752184
163.99139506672938
188.66542860611858
219.37627402884422
222.9890071495351
191.17300117556027
165.6975306109801
146.0495076726214
131.4782580974586
121.09749297217448
113.99584117268326
109.32958707705639
106.38302227155958
104.59319421802083
103.54619742394107
102.9557296136895
102.63463810969384
102.46710767290752
102.38578838053421
102.35549083265957
102.36354980604193
102.41654251439677
102.54326724284547
102.80432783823258
103.30882821392483
104.23808906557026
105.87452197148382
108.63088786537975
113.07137305714953
119.9129934149051
129.9954776254768
144.21229828746496
163.4055420682342
188.24008338907694
219.08456933522535
221.1108171064545
189.6559713371123
164.39573243691282
144.87005382866928
130.3652596380583
120.01914479868597
112.93481392482728
108.27690954771735
105.33424479569977
103.54619728414403
102.50002375677498
101.90999058592743
101.5892550456858
101.42223423352567
101.34187509568338
101.31347005328809
101.32515996357287
101.3848018770742
101.5230708731973
101.80307133025728
102.33687744822159
103.30882965095878
105.00373982435687
107.8353123972566
112.36651270178301
119.31060845995725
129.5013665341639
143.82509645100865
163.11686431410092
188.0361620668086
218.94869550137724
220.04469225397955
188.80684984027812
163.67017651669258
144.21178597607312
129.74208185228667
119.41354511127625
112.33768522527497
107.68376625899262
104.7429221888626
102.95572958917418
101.90999166260882
101.32025274092598
100.99983335487299
100.83330547119608
100.75384552705846
100.72712372614731
100.74189258446522
100.80692898095772
100.95417398335705
101.24829888988458
101.80307241128274
102.80432862935416
104.53775637812983
107.4168748515646
112.00311283666424
119.0068950603375
129.25821654721904
143.63943698301495
162.98222766071586
187.94390346563725
218.88954666109586
219.4609200468929
188.3478842994869
163.2793648084025
143.85657925996398
129.40482182833267
119.08496700795108
112.01320553516058
107.36121496453684
104.42131236709535
102.63463911388254
101.58925443495448
100.9998329972191
100.67977722931829
100.51376604692109
100.43514671159497
100.40987025796025
100.42712337200416
100.49629840158586
100.6501254102934
100.95417313368824
101.5230705985445
102.54326836130518
104.30058244822143
107.2079996823134
111.82569130642982
118.86224220436227
129.1455605376938
143.55602948369494
162.9239173009658
187.90589336192437
218.86740675799314
219.15192304169892
188.10794739143358
163.07569013221323
143.67120825158526
129.22840571857287
118.91284245220183
111.84322437034608
107.1923713302304
104.25321097497083
102.46710919879054
101.42223348957452
100.83330545229906
100.51376595960838
100.34836314496475
100.27056397425726
100.2465186176617
100.26570510542209
100.33790252030808
100.49629827328035
100.80692920899837
101.38480177938096
102.41654321205121
104.18783225720324
107.11114475789026
111.74581336222852
118.79937216982051
129.09870136596712
143.52335918453954
162.90320067323543
187.89506830512758
218.86513452343462
218.99370915276256
187.98664571469848
162.97310481099183
143.57798700735998
129.1398243386746
118.8267287590248
111.75865405977298
107.10898391855977
104.17088382342196
102.3857880555529
101.34187508676239
100.7538457826259
100.43514662130252
100.2705640738513
100.19365063126774
100.1706972253377
100.19137663434925
100.26570502449574
100.42712315833771
100.74189229108336
101.32515999706357
102.36354931765372
104.1425617393596
107.07431652282544
111.71766325163091
118.77963280680548
129.0866616470867
143.51810190300995
162.90391834060793
187.90166588097213
218.87894856762625
218.91548858889465
187.92774731633887
162.92400611065736
143.53405019717044
129.098945583343
118.78817202558508
111.72216148548618
107.07457268342009
104.13855575666098
102.3554905085126
101.31347019075457
100.72712310065712
100.40987029006608
100.24651847180125
100.17069722815431
100.14881599719189
100.17069726751029
100.24651853014281
100.4098705083684
100.72712337942679
101.31346986787476
102.35549160657143
104.138554657043
107.07457495726713
111.72216449940531
118.7881693654758
129.09895439263653
143.53404254930788
162.92402303855627
187.9277154237891
218.9154901296494
218.87897870558643
187.90164650122412
162.9039410180872
143.5181211501769
129.08665912385385
118.77964186223967
111.71766355335642
107.07431954143902
104.14256173932682
102.36355061132528
101.32516090354522
100.74189228685533
100.42712368634908
100.26570507169932
100.19137667411952
100.17069729739266
100.19365069454578
100.27056389528725
100.43514671109128
100.75384534940052
101.34187440071625
102.38578806341296
104.17088191190187
107.10898357195141
111.75864763589644
118.82673007684971
129.13980940601556
143.5779683208658
162.97311566398696
187.98661021497102
218.99370231213825
218.8651669383461
187.89504700548446
162.9032101811395
143.52334619029435
129.09870454709466
118.79936714831793
111.74580956150065
107.11114634135718
104.1878303583138
102.4165437345045
101.38480126954258
100.80692881066501
100.49629815508642
100.33790243568822
100.26570517453824
100.24651863698642
100.27056399793742
100.34836325642776
100.51376609881312
100.83330525079863
101.42223408176051
102.46710844697608
104.2532122355511
107.19237297200924
111.8432221512064
118.91284776020434
129.22839869428927
143.67121838336647
163.07565888900794
188.1079402636696
219.1519472871587
218.8673700517404
187.9059058292352
162.92392774648485
143.55601452781698
129.14556488507307
118.86223677139873
111.82569210503438
107.20799717107393
104.3005830718718
102.54326898470931
101.52307002570127
100.95417375449922
100.65012527506316
100.49629831193222
100.42712335880483
100.40987025043017
100.43514664176539
100.51376614280166
100.67977709292147
100.99983284045132
101.58925484584111
102.63463870855671
104.42131339677081
107.36121280914587
112.01320955603993
119.08496101040593
129.40481446589385
143.85659536489538
163.27934707403494
188.34789043494916
219.4609591439127
218.8895253296361
187.9439143736795
162.98220891904765
143.6394403926971
129.2582087483163
119.00688917705763
112.00311513389217
107.4168718183955
104.53775724653849
102.80432778053942
101.80307173892439
101.24829867563987
100.95417381536825
100.80692914349255
100.7418926103188
100.72712373041803
100.75384557743358
100.83330552995537
100.99983323004939
101.32025304332643
101.90999117207397
102.95573025843147
104.74292301026418
107.68376456301678
112.33768829662336
119.41353950656362
129.74208851869716
144.2117613310105
163.67017139512177
188.80687426715227
220.04475320310618
218.94870483977823
188.03617167233665
163.1168429733002
143.8251014551064
129.50135850363853
119.31060960271088
112.3665088266932
107.83531343910819
105.00374088719978
103.30882871414359
102.33687855184611
101.80307113861468
101.52307072580834
101.38480183324303
101.32515990174895
101.31347005180835
101.34187517566725
101.42223414431027
101.58925497439024
101.90999079380649
102.50002347300882
103.54619782456767
105.33424332658747
108.27691200302233
112.93480967921228
120.01913974799679
130.36527196774253
144.8700428422517
164.3957442902148
189.65602154542006
221.11075454207955
219.08457538468053
188.24005623441207
163.40554566600892
144.21228736954373
129.99546937043417
119.91299684150549
113.07136861850182
108.63088932407514
105.87452069267329
104.23808802754868
103.30882786422212
102.80432753154675
102.54326755430097
102.41654260194186
102.36354981130556
102.35549085205801
102.38578839135353
102.46710760115141
102.63463826576388
102.95572932850732
103.54619782499552
104.59319464727396
106.3830212278734
109.32958912374046
113.99583771025186
121.09749869550471
131.4782422843009
146.04950922341754
165.69756162194315
191.17307645884546
222.9889867728793
219.37630212269548
188.6654200971242
163.99141673875437
144.97776118632095
130.94825624278764
121.04798204861947
114.37188935365195
110.07201158812747
107.42750048621349
105.87452861336826
105.00374241200537
104.53775983532464
104.30058759487419
104.18783527142512
104.14256684826044
104.13855773582377
104.17088670096201
104.25321479135201
104.42131672632136
104.74292771094562
105.33424588625996
106.38302478828362
108.17672704329198
111.13157813555067
115.81497678353813
122.95090939470062
133.39747285437386
148.08996496365896
167.95159262891931
193.78616562793377
226.17681054613547
219.96913779246356
189.5063398501708
165.11896836058634
146.41365732241837
132.6928342922463
123.08064426195709
116.65558630472805
112.56030014522044
110.072007476698
108.6308928712425
107.83531807370437
107.41687767999119
107.2080055871382
107.11114733007987
107.07432208864608
107.07457709522909
107.10898927196831
107.19237907312134
107.36121564899709
107.68377024372585
108.27691378714724
109.32959209269548
111.13157798372087
114.10352869118081
118.82101712503159
126.02231828298918
136.58923972561772
151.49382636002474
171.71235770799035
198.1189885344656
231.38072259431692
221.11159742895435
191.08244361721435
167.1767219769187
148.96851708394695
135.72494372686128
126.53982700849143
120.47168999879895
116.65558101591284
114.37188817179545
113.07137697278091
112.36651810981586
112.00311264512315
111.82569609165577
111.74581321840999
111.71766866966516
111.72217031343529
111.75865178993641
111.84322758885651
112.01320992830325
112.33769327643941
112.934809726767
113.99584023709349
115.81498377554941
118.82101516778033
123.60372432311343
130.92489086669065
141.70284882693161
156.96245498386108
177.75016813146613
205.0242542827576
239.53912188407585
223.1970108120959
193.8807309396111
170.7348192181051
153.27798879493145
140.72532556643398
132.13272792493143
126.5398206015353
123.0806427237537
121.04798030909346
119.91299324351107
119.31061060063351
119.0068890943335
118.86224460246918
118.79937545624385
118.77963377085534
118.78817225941104
118.8267305461103
118.91284994315978
119.08495540323479
119.4135413014375
120.01914346709646
121.0974952304008
122.95091003372971
126.02232150474406
130.9248892575151
138.45670997204422
149.58857427728577
165.415104766645
187.06645012170048
215.58820535136473
251.80729638763674
226.80086467353922
198.585095370546
176.56223735137016
160.16739917698249
148.54916628326094
140.72533078730623
135.7249414333827
132.69281273537007
130.94823827774275
129.99546964108308
129.50136124670084
129.25821277989525
129.1455544333209
129.0986979267894
129.08665438063576
129.09894940368517
129.13980120372378
129.22839388003115
129.40481209707505
129.74208264267898
130.36526289795333
131.4782372004778
133.3974725980441
136.58923749593598
141.70284151828363
149.5885680847117
161.2864790439044
177.97409008202283
200.86784920792843
231.08492116801668
269.4846374063925
232.69612635790756
206.07394877914442
185.60293195238373
170.6068825387572
160.16745222064546
153.27800048508666
148.96853792100217
146.41367473359696
144.97778463737268
144.2123381686103
143.82512063262672
143.63946458170548
143.55605258950857
143.52338545953796
143.51812386613472
143.5340685307123
143.57800791444325
143.6712421244049
143.85661394596153
144.21179499018368
144.87007018200865
146.04953122013947
148.08999727720624
151.49384971811563
156.96247305501115
165.41512027096184
177.97411858436047
195.90188263341398
220.48377256340706
252.86590636840728
293.87362682582113
241.83072657743597
217.3711798590505
198.89292045574064
185.6029092458967
176.5622749218626
170.73484352111078
167.17675424286242
165.11900210803586
163.99141276856332
163.40557809003158
163.1168798070717
162.98224811526032
162.92393258480413
162.90322072035212
162.9039562038341
162.92404025072327
162.97313998666888
163.07568881703102
163.27936902524888
163.67020058647987
164.39576543060377
165.69757430294732
167.9516220533734
171.71237622904428
177.75019272107275
187.0664652130697
200.86786589372895
220.48377307471023
247.2223294343501
282.1836980612024
326.07431325036424
255.26586668644774
233.55460485354777
217.37115881791217
206.07393634100623
198.58512983063426
193.8807740940933
191.08243406033046
189.50634077496022
188.66543189006734
188.24010994846395
188.0361624174712
187.9439102590472
187.90592453208396
187.89507345373164
187.90167854664944
187.92773403461618
187.98663604005597
188.10795750372273
188.34789907717786
188.8068920452956
189.6560294765073
191.17307457090055
193.78619773760815
198.1190014905882
205.0242682653701
215.588216244233
231.08493133044166
252.86591126934928
282.1836910059666
319.96674072215086
366.7234687157803
274.3322158279005
255.26583859783975
241.83071245301147
232.69612814625242
226.8008580908086
223.19701352338967
221.11160336885513
219.96915481137825
219.37625539511308
219.08457636947793
218.94870875816275
218.8895327926695
218.86740291088682
218.86513565888777
218.87895697197368
218.91548813479648
218.99370998173143
219.15194626787735
219.46094884481002
220.0447515504824
221.11075735816755
222.98897225294795
226.17682464569603
231.38072262383113
239.5391156231569
251.80729076936973
269.4846383812272
293.8736167405759
326.07428927850367
366.7234508854155
415.0829057587559
