# vtk DataFile Version 2.0
Unstructured Grid Example
ASCII
DATASET UNSTRUCTURED_GRID

POINTS 961 float
0.150000006 -0.00839745998 0
0.146666661 -0.00839745998 0
0.143333331 -0.00839745998 0
0.140000001 -0.00839745998 0
0.13666667 -0.00839745998 0
0.13333334 -0.00839745998 0
0.129999995 -0.00839745998 0
0.126666665 -0.00839745998 0
0.123333335 -0.00839745998 0
0.119999997 -0.00839745998 0
0.116666667 -0.00839745998 0
0.113333337 -0.00839745998 0
0.109999999 -0.00839745998 0
0.106666669 -0.00839745998 0
0.103333332 -0.00839745998 0
0.100000001 -0.00839745998 0
0.0966666639 -0.00839745998 0
0.0933333337 -0.00839745998 0
0.0900000036 -0.00839745998 0
0.086666666 -0.00839745998 0
0.0833333358 -0.00839745998 0
0.0799999982 -0.00839745998 0
0.0766666681 -0.00839745998 0
0.0733333305 -0.00839745998 0
0.0700000003 -0.00839745998 0
0.0666666701 -0.00839745998 0
0.0633333325 -0.00839745998 0
0.0599999987 -0.00839745998 0
0.0566666685 -0.00839745998 0
0.0533333346 -0.00839745998 0
0.0500000007 -0.00839745998 0
0.148333326 -0.0112842107 0
0.144999996 -0.0112842107 0
0.141666666 -0.0112842107 0
0.138333336 -0.0112842107 0
0.135000005 -0.0112842107 0
0.13166666 -0.0112842107 0
0.12833333 -0.0112842107 0
0.125 -0.0112842107 0
0.12166667 -0.0112842107 0
0.118333332 -0.0112842107 0
0.115000002 -0.0112842107 0
0.111666664 -0.0112842107 0
0.108333334 -0.0112842107 0
0.104999997 -0.0112842107 0
0.101666667 -0.0112842107 0
0.0983333364 -0.0112842107 0
0.0949999988 -0.0112842107 0
0.0916666687 -0.0112842107 0
0.088333331 -0.0112842107 0
0.0850000009 -0.0112842107 0
0.0816666633 -0.0112842107 0
0.0783333331 -0.0112842107 0
0.075000003 -0.0112842107 0
0.0716666654 -0.0112842107 0
0.0683333352 -0.0112842107 0
0.0649999976 -0.0112842107 0
0.0616666675 -0.0112842107 0
0.0583333336 -0.0112842107 0
0.0549999997 -0.0112842107 0
0.0516666658 -0.0112842107 0
0.0483333319 -0.0112842107 0
0.146666661 -0.0141709624 0
0.143333331 -0.0141709624 0
0.140000001 -0.0141709624 0
0.13666667 -0.0141709624 0
0.13333334 -0.0141709624 0
0.129999995 -0.0141709624 0
0.126666665 -0.0141709624 0
0.123333335 -0.0141709624 0
0.119999997 -0.0141709624 0
0.116666667 -0.0141709624 0
0.113333337 -0.0141709624 0
0.109999999 -0.0141709624 0
0.106666669 -0.0141709624 0
0.103333332 -0.0141709624 0
0.100000001 -0.0141709624 0
0.0966666639 -0.0141709624 0
0.0933333337 -0.0141709624 0
0.0900000036 -0.0141709624 0
0.086666666 -0.0141709624 0
0.0833333358 -0.0141709624 0
0.0799999982 -0.0141709624 0
0.0766666681 -0.0141709624 0
0.0733333305 -0.0141709624 0
0.0700000003 -0.0141709624 0
0.0666666701 -0.0141709624 0
0.0633333325 -0.0141709624 0
0.0599999987 -0.0141709624 0
0.0566666685 -0.0141709624 0
0.0533333346 -0.0141709624 0
0.0500000007 -0.0141709624 0
0.0466666669 -0.0141709624 0
0.144999996 -0.0170577131 0
0.141666666 -0.0170577131 0
0.138333336 -0.0170577131 0
0.135000005 -0.0170577131 0
0.13166666 -0.0170577131 0
0.12833333 -0.0170577131 0
0.125 -0.0170577131 0
0.12166667 -0.0170577131 0
0.118333332 -0.0170577131 0
0.115000002 -0.0170577131 0
0.111666664 -0.0170577131 0
0.108333334 -0.0170577131 0
0.104999997 -0.0170577131 0
0.101666667 -0.0170577131 0
0.0983333364 -0.0170577131 0
0.0949999988 -0.0170577131 0
0.0916666687 -0.0170577131 0
0.088333331 -0.0170577131 0
0.0850000009 -0.0170577131 0
0.0816666633 -0.0170577131 0
0.0783333331 -0.0170577131 0
0.075000003 -0.0170577131 0
0.0716666654 -0.0170577131 0
0.0683333352 -0.0170577131 0
0.0649999976 -0.0170577131 0
0.0616666675 -0.0170577131 0
0.0583333336 -0.0170577131 0
0.0549999997 -0.0170577131 0
0.0516666658 -0.0170577131 0
0.0483333319 -0.0170577131 0
0.0450000018 -0.0170577131 0
0.143333331 -0.0199444648 0
0.140000001 -0.0199444648 0
0.13666667 -0.0199444648 0
0.13333334 -0.0199444648 0
0.129999995 -0.0199444648 0
0.126666665 -0.0199444648 0
0.123333335 -0.0199444648 0
0.119999997 -0.0199444648 0
0.116666667 -0.0199444648 0
0.113333337 -0.0199444648 0
0.109999999 -0.0199444648 0
0.106666669 -0.0199444648 0
0.103333332 -0.0199444648 0
0.100000001 -0.0199444648 0
0.0966666639 -0.0199444648 0
0.0933333337 -0.0199444648 0
0.0900000036 -0.0199444648 0
0.086666666 -0.0199444648 0
0.0833333358 -0.0199444648 0
0.0799999982 -0.0199444648 0
0.0766666681 -0.0199444648 0
0.0733333305 -0.0199444648 0
0.0700000003 -0.0199444648 0
0.0666666701 -0.0199444648 0
0.0633333325 -0.0199444648 0
0.0599999987 -0.0199444648 0
0.0566666685 -0.0199444648 0
0.0533333346 -0.0199444648 0
0.0500000007 -0.0199444648 0
0.0466666669 -0.0199444648 0
0.043333333 -0.0199444648 0
0.141666666 -0.0228312165 0
0.138333336 -0.0228312165 0
0.135000005 -0.0228312165 0
0.13166666 -0.0228312165 0
0.12833333 -0.0228312165 0
0.125 -0.0228312165 0
0.12166667 -0.0228312165 0
0.118333332 -0.0228312165 0
0.115000002 -0.0228312165 0
0.111666664 -0.0228312165 0
0.108333334 -0.0228312165 0
0.104999997 -0.0228312165 0
0.101666667 -0.0228312165 0
0.0983333364 -0.0228312165 0
0.0949999988 -0.0228312165 0
0.0916666687 -0.0228312165 0
0.088333331 -0.0228312165 0
0.0850000009 -0.0228312165 0
0.0816666633 -0.0228312165 0
0.0783333331 -0.0228312165 0
0.075000003 -0.0228312165 0
0.0716666654 -0.0228312165 0
0.0683333352 -0.0228312165 0
0.0649999976 -0.0228312165 0
0.0616666675 -0.0228312165 0
0.0583333336 -0.0228312165 0
0.0549999997 -0.0228312165 0
0.0516666658 -0.0228312165 0
0.0483333319 -0.0228312165 0
0.0450000018 -0.0228312165 0
0.0416666679 -0.0228312165 0
0.140000001 -0.0257179681 0
0.13666667 -0.0257179681 0
0.13333334 -0.0257179681 0
0.129999995 -0.0257179681 0
0.126666665 -0.0257179681 0
0.123333335 -0.0257179681 0
0.119999997 -0.0257179681 0
0.116666667 -0.0257179681 0
0.113333337 -0.0257179681 0
0.109999999 -0.0257179681 0
0.106666669 -0.0257179681 0
0.103333332 -0.0257179681 0
0.100000001 -0.0257179681 0
0.0966666639 -0.0257179681 0
0.0933333337 -0.0257179681 0
0.0900000036 -0.0257179681 0
0.086666666 -0.0257179681 0
0.0833333358 -0.0257179681 0
0.0799999982 -0.0257179681 0
0.0766666681 -0.0257179681 0
0.0733333305 -0.0257179681 0
0.0700000003 -0.0257179681 0
0.0666666701 -0.0257179681 0
0.0633333325 -0.0257179681 0
0.0599999987 -0.0257179681 0
0.0566666685 -0.0257179681 0
0.0533333346 -0.0257179681 0
0.0500000007 -0.0257179681 0
0.0466666669 -0.0257179681 0
0.043333333 -0.0257179681 0
0.0399999991 -0.0257179681 0
0.138333336 -0.0286047198 0
0.135000005 -0.0286047198 0
0.13166666 -0.0286047198 0
0.12833333 -0.0286047198 0
0.125 -0.0286047198 0
0.12166667 -0.0286047198 0
0.118333332 -0.0286047198 0
0.115000002 -0.0286047198 0
0.111666664 -0.0286047198 0
0.108333334 -0.0286047198 0
0.104999997 -0.0286047198 0
0.101666667 -0.0286047198 0
0.0983333364 -0.0286047198 0
0.0949999988 -0.0286047198 0
0.0916666687 -0.0286047198 0
0.088333331 -0.0286047198 0
0.0850000009 -0.0286047198 0
0.0816666633 -0.0286047198 0
0.0783333331 -0.0286047198 0
0.075000003 -0.0286047198 0
0.0716666654 -0.0286047198 0
0.0683333352 -0.0286047198 0
0.0649999976 -0.0286047198 0
0.0616666675 -0.0286047198 0
0.0583333336 -0.0286047198 0
0.0549999997 -0.0286047198 0
0.0516666658 -0.0286047198 0
0.0483333319 -0.0286047198 0
0.0450000018 -0.0286047198 0
0.0416666679 -0.0286047198 0
0.038333334 -0.0286047198 0
0.13666667 -0.0314914696 0
0.13333334 -0.0314914696 0
0.129999995 -0.0314914696 0
0.126666665 -0.0314914696 0
0.123333335 -0.0314914696 0
0.119999997 -0.0314914696 0
0.116666667 -0.0314914696 0
0.113333337 -0.0314914696 0
0.109999999 -0.0314914696 0
0.106666669 -0.0314914696 0
0.103333332 -0.0314914696 0
0.100000001 -0.0314914696 0
0.0966666639 -0.0314914696 0
0.0933333337 -0.0314914696 0
0.0900000036 -0.0314914696 0
0.086666666 -0.0314914696 0
0.0833333358 -0.0314914696 0
0.0799999982 -0.0314914696 0
0.0766666681 -0.0314914696 0
0.0733333305 -0.0314914696 0
0.0700000003 -0.0314914696 0
0.0666666701 -0.0314914696 0
0.0633333325 -0.0314914696 0
0.0599999987 -0.0314914696 0
0.0566666685 -0.0314914696 0
0.0533333346 -0.0314914696 0
0.0500000007 -0.0314914696 0
0.0466666669 -0.0314914696 0
0.043333333 -0.0314914696 0
0.0399999991 -0.0314914696 0
0.0366666652 -0.0314914696 0
0.135000005 -0.0343782231 0
0.13166666 -0.0343782231 0
0.12833333 -0.0343782231 0
0.125 -0.0343782231 0
0.12166667 -0.0343782231 0
0.118333332 -0.0343782231 0
0.115000002 -0.0343782231 0
0.111666664 -0.0343782231 0
0.108333334 -0.0343782231 0
0.104999997 -0.0343782231 0
0.101666667 -0.0343782231 0
0.0983333364 -0.0343782231 0
0.0949999988 -0.0343782231 0
0.0916666687 -0.0343782231 0
0.088333331 -0.0343782231 0
0.0850000009 -0.0343782231 0
0.0816666633 -0.0343782231 0
0.0783333331 -0.0343782231 0
0.075000003 -0.0343782231 0
0.0716666654 -0.0343782231 0
0.0683333352 -0.0343782231 0
0.0649999976 -0.0343782231 0
0.0616666675 -0.0343782231 0
0.0583333336 -0.0343782231 0
0.0549999997 -0.0343782231 0
0.0516666658 -0.0343782231 0
0.0483333319 -0.0343782231 0
0.0450000018 -0.0343782231 0
0.0416666679 -0.0343782231 0
0.038333334 -0.0343782231 0
0.0350000001 -0.0343782231 0
0.13333334 -0.0372649729 0
0.129999995 -0.0372649729 0
0.126666665 -0.0372649729 0
0.123333335 -0.0372649729 0
0.119999997 -0.0372649729 0
0.116666667 -0.0372649729 0
0.113333337 -0.0372649729 0
0.109999999 -0.0372649729 0
0.106666669 -0.0372649729 0
0.103333332 -0.0372649729 0
0.100000001 -0.0372649729 0
0.0966666639 -0.0372649729 0
0.0933333337 -0.0372649729 0
0.0900000036 -0.0372649729 0
0.086666666 -0.0372649729 0
0.0833333358 -0.0372649729 0
0.0799999982 -0.0372649729 0
0.0766666681 -0.0372649729 0
0.0733333305 -0.0372649729 0
0.0700000003 -0.0372649729 0
0.0666666701 -0.0372649729 0
0.0633333325 -0.0372649729 0
0.0599999987 -0.0372649729 0
0.0566666685 -0.0372649729 0
0.0533333346 -0.0372649729 0
0.0500000007 -0.0372649729 0
0.0466666669 -0.0372649729 0
0.043333333 -0.0372649729 0
0.0399999991 -0.0372649729 0
0.0366666652 -0.0372649729 0
0.0333333351 -0.0372649729 0
0.13166666 -0.0401517227 0
0.12833333 -0.0401517227 0
0.125 -0.0401517227 0
0.12166667 -0.0401517227 0
0.118333332 -0.0401517227 0
0.115000002 -0.0401517227 0
0.111666664 -0.0401517227 0
[...]
POINT_DATA 961
SCALARS Temp float 1
LOOKUP_TABLE default
408.71418564303787
359.69516432733457
318.3071346036126
285.7979105264496
261.50080006888766
244.19091826976353
232.42201897748404
224.77604289038092
220.02204062443337
217.18819214921206
215.56559932594288
214.67142525923285
214.19621462493424
213.95219340296512
213.83093691074228
213.77267850879426
213.74603331466864
213.7357416453814
213.736240233773
213.7496662365755
213.78816916052526
213.88163709280565
214.0932598246038
214.54585217451938
215.460601712594
217.20572143428458
220.34475939696733
225.66575853208255
234.16965817878767
247.01220553829222
265.7450739408008
361.2590018608052
313.3854527200503
274.9783231052918
245.47092330078632
223.84653678840084
208.71907843694441
198.60789136821202
192.1423548943887
188.18107510564863
185.85165461514106
184.5344766775596
183.81690603884317
183.43956772937457
183.2476989502603
183.1532836211112
183.1085340542329
183.08890255212262
183.08328165155433
183.08945989693282
183.11403842842086
183.17720746778312
183.3241748516058
183.64599227098623
184.31229742229266
185.6159324245181
188.02332617987338
192.21587790796696
199.10015428971116
209.764858627607
225.38516611429833
246.56806673185895
321.24434343208424
276.3257158328689
240.828052574808
213.9673143012853
194.525331590621
181.0642831272613
172.14299441008154
166.4771763300741
163.02437922605733
161.00219057483434
159.86209424215252
159.2422469918147
158.91672297090224
158.7513518215791
158.6701173914745
158.6319605361012
158.61619192926378
158.6143948922556
158.62737439925198
158.66683419978983
158.76267738509483
158.97814580736178
159.43545880914104
160.35354566664526
162.09544591394732
165.21568778344474
170.48913026753462
178.89644544273176
191.54070838349142
209.42432554055773
233.44154195092284
289.761740426762
247.84882945304128
215.01474843618016
190.3474533830373
172.5850239387635
160.32622313942446
152.21385735793163
147.0622974070242
143.91974090669146
142.0758793441133
141.03380717406148
140.46568347358496
140.16644681801228
140.014025420778
139.93910180318258
139.9042938243654
139.89118207949375
139.89342490922417
139.91496498402861
139.9733540157396
140.10952235388365
140.4062666085403
141.0177027050196
142.2099014061971
144.4078204422772
148.23586891823814
154.53142185013556
164.30634794978494
178.63443044663475
198.52645031051472
224.76127016203202
266.1180440834527
226.93151180081503
196.3282561329466
173.36571531857345
156.8238594768624
145.38690463556622
137.79701462442472
132.96031513337076
129.9983496040307
128.25341512138388
127.2632967403736
126.72142685500835
126.43501474598082
126.28872675196988
126.21683827224291
126.1839930306659
126.17327874507104
126.1802553186763
126.21224350484329
126.2931897193115
126.47562116537559
126.8617998381375
127.6356373890524
129.10407846434356
131.74104243871085
136.21952720639726
143.41122154874003
154.33349560508802
170.045206721146
191.49474631371717
219.34125267184675
249.14720233885478
212.24036535506292
183.37807451755765
161.66178343984387
145.95946130874276
135.05625167350098
127.78784719599308
123.13522783451315
120.27382578714075
118.5814854180901
117.61780697057522
117.08875540132564
116.80838988402029
116.66496404073484
116.59464922817621
116.56327491058066
116.55510903438272
116.56760750571634
116.61162731288563
116.71763913914845
116.94941135017517
117.4269713587691
118.35959903123408
120.08629352488435
123.11552078891891
128.14954126017565
136.07450170999508
147.90201787193828
164.6563553565173
187.21748325739506
216.15381395605658
237.49795471459504
202.36999759795444
174.78370164464147
153.92809889582287
138.77361729903578
128.20051199417495
121.12100525986915
116.57142159388094
113.76374012344765
112.09827720884134
111.14755185456097
110.62454538967235
110.34696128272759
110.20490296357887
110.13556248470623
110.10555623111283
110.10020421018703
110.11884639418193
110.17583601426215
110.3078060277989
110.58854834973205
111.15293364529383
112.2298989421768
114.1811030441171
117.53657257903409
123.01311764023454
131.49869852876907
143.9885236327775
161.4693292906703
184.76662987707545
214.38954680195724
229.84547343582807
196.0215383144188
169.31779181649694
149.02569220243592
134.21138174701434
123.83315995686002
116.85991598897986
112.36566196939664
109.58557304527477
107.93335184446842
106.98875496076808
106.46851947196043
106.19220971531233
106.05087537921708
105.9822950997845
105.95368768478463
105.95135302627261
105.9764256246068
106.04647734249681
106.20351401168578
106.52954380695756
107.17077560999633
108.36996705851598
110.50308938693114
114.11167793631492
119.91723195866196
128.80173152590862
141.74145452335878
159.6924381013221
183.44358183600812
213.46999654987
225.0300226175082
192.10836238120214
165.98310316721083
146.04165282091233
131.428834889757
121.16067476771428
114.2448027504754
109.77913091096197
107.01271172481049
105.36679132530942
104.42500946824246
103.90602188121271
103.63032035902567
103.48944954487227
103.42156533836786
103.3943938052031
103.39512671541077
103.42650698954932
103.50885193318172
103.6884864088604
104.05359850394998
104.7582949268107
106.05408572050406
108.32484944793306
112.11680567656933
118.15044935603366
127.2992397776538
140.52341572118138
158.7579757371437
182.77023883334442
213.01827169053496
222.1237983968125
189.79352046211545
164.02880363158016
144.29543936315517
129.79675852737324
119.58822877582489
112.70212184273662
108.25067544305229
105.49081151512031
103.84779808375498
102.90728491029334
102.38886648340771
102.11349509516289
101.97298928241963
101.90577876534047
101.8800251257028
101.88369327399796
101.92086859934857
102.01403395394001
102.21271222051337
102.60934761657393
103.3630339787195
104.7301893458289
107.09828302037616
111.01431994208775
117.19552271778696
126.5076384112096
139.89963155758562
158.29393017569654
182.4467204889288
212.8087792290511
220.4391021779792
188.47752252533368
162.92691294905433
143.311625842613
128.87490498451683
118.69746428149791
111.82625235654962
107.38166356965239
104.62484925881256
102.98315579283431
102.04321840062853
101.52508492296757
101.24993934840786
101.10976416834947
101.04320289103902
101.0187789629304
101.025087844364
101.06725449704513
101.16933973230582
101.38304176900294
101.80347626794973
102.59255614991925
104.00905710827591
106.44153415398071
110.43606208564228
116.70648281210357
126.11294860026989
139.59760147818403
158.07620044087392
182.29994918898055
212.7171330158551
219.49941246153307
187.7571843700467
162.3282085477155
142.77716569841414
128.37280974952054
118.2109711828213
111.34696328386042
106.9056131915866
104.15020281430374
102.50913387032331
101.56949531998478
101.0515531835427
100.7766107023456
100.63675949342648
100.57081027176702
100.54757168076313
100.5561189943203
100.60232312737047
100.71130573392533
100.9361205251323
101.37339794024847
102.18644167372507
103.63490573478407
106.10727605138226
110.148301079447
116.46924512060713
125.92678217247386
139.45940758431692
157.97980085416398
182.23729079697193
212.67977571189502
218.99445146569423
187.37691458064833
162.01421740717058
142.49674849892054
128.1087449630677
117.95451387908238
111.09394245166175
106.65413145846848
103.89943115897121
102.25873255294215
101.3193341985282
100.80160307859133
100.52690006295042
100.38739294134255
100.32201754603206
100.29979526378817
100.31014129655647
100.35942333629973
100.47341974827187
100.70595368968928
101.15441831099362
101.98268988316255
103.45057673480862
105.9461287499552
110.01299322539647
116.36079097059755
125.84432553111961
139.4003385002963
157.94030289018718
182.21303632158828
212.66680396402953
218.7324379447973
187.18297725639925
161.85505679906638
142.35459999607457
127.97462724443528
117.8240826172313
110.9652673266226
106.52633344472783
103.77217935958723
102.13188620578042
101.19284216226585
100.6754503306807
100.40109829015537
100.26200369828751
100.19719018647825
100.1758301313316
100.18756548625255
100.2390734354928
100.35650853117797
100.59408989644801
101.04954150148342
101.88690564328617
103.3658875441012
105.87410445667823
109.95447730512088
116.3157114200235
125.81171866167831
139.3785352039651
157.92728440818183
182.20691190001568
212.66617937287424
218.60108170309428
187.08745283008219
161.7771809746822
142.28526602049448
127.90934857987331
117.76084878833437
110.9032425141454
106.46519442917841
103.7118164680696
102.07225062583015
101.13389793404669
100.61714490513232
100.3433832776877
100.2048587161614
100.14065830358874
100.12006091896853
100.13285866035001
100.18591568414868
100.30559087373786
100.54628904278047
101.00585485337562
101.84833173205281
103.33327886761728
105.8480132045506
109.93504537169505
116.30265287765012
125.80436704912411
139.37603371026367
157.9288131548331
182.21211994281356
212.67562907257954
218.5376064403897
187.04239109529337
161.74115026986848
142.25378994659272
127.88041999853678
117.73376524214865
110.877736853302
106.44125981143065
103.68943879717365
102.05138061874982
101.11442416072524
100.59890162729666
100.32618721365675
100.18854225851648
100.12511289728664
100.1052680641524
100.11891432796733
100.1730404643092
100.29412266406625
100.53665232078082
100.99851005262805
101.84370504009355
103.33168424610945
105.84959479507091
109.93974661530336
116.31025425157529
125.81456386838302
139.3885979523455
157.94389477771617
182.23062492906027
212.70026702999314
218.50886424342553
187.02330241829225
161.72742076078455
142.24353234454486
127.87308659411497
117.72937800873956
110.8764746967304
106.44326652154756
103.69470667654235
102.05973692904944
101.12552754766486
100.61231586822782
100.34144810689655
100.20522266005521
100.1428735438163
100.12388563273716
100.13828944951032
100.19318796372256
100.3151480052675
100.55871828460332
101.02179434984346
101.86836085541091
103.3578050089378
105.8771970495599
109.96878848604875
116.34067199741597
125.84640118154365
139.42221320977268
157.98045845465452
182.2729072388045
212.7542759238565
218.49890471899047
187.0197693505831
161.72886530130737
142.24984814612114
127.8849011236706
117.74731487489399
110.90109270987274
106.47473431062926
103.73280086145434
102.10385960741039
101.17480205465318
100.66573911062136
100.39802155337043
100.26407044628749
100.20330164213688
100.18540173958719
100.20058704813344
100.25611080900937
100.37864624000498
100.62280634492694
101.08651371981858
101.93375037386865
103.42388793401443
105.9439834236997
110.03632040261827
116.40911332476539
125.91624146585703
139.4947076113682
158.05838353253557
182.36227571176087
212.86709446827587
218.5027085066296
187.03105282055523
161.74842407334268
142.27929125185725
127.9259893002284
117.80146527898542
110.96906112826476
106.55641831654943
103.82727231762715
102.20949550059355
101.28959288930044
100.78758692406126
100.52499144109376
100.39455321698135
100.33607520779871
100.31961571829724
100.33569935093722
100.39180801518506
100.51476788666615
100.75928260664877
101.22332330463331
102.07089625366018
103.56139535485067
106.08193374037485
110.17492539941922
116.54891445839962
126.05849995891803
139.64225900790353
158.2171626805081
182.5441964681422
213.09494572829098
218.5249230841488
187.06693625377363
161.80153313055743
142.35361341039547
128.02481408098058
117.92702852883784
111.1218811039171
106.73527242248937
104.02941767729767
102.43116212716455
101.52661605149179
101.03594999830577
100.78123517051311
100.65595817618765
100.60067781872215
100.58610510296361
100.60326402104843
100.65998225078259
100.78330533513439
101.02806641108052
101.49231122806084
102.34010101568845
103.83090018217567
106.35197183272334
110.44606026487698
116.82243508852066
126.33724115067228
139.93210288042593
158.52997753147332
182.902642348194
213.54034494172978
218.58259408516525
187.15350147650204
161.92478662238844
142.52081006934262
128.24132729952169
118.19531899695727
111.44097165257126
107.10099030946827
104.43514947654369
102.869063750023
101.98877314222926
101.51527767497977
101.27199182162992
101.15387841855404
101.10283696533304
101.09064104787403
101.10907259473457
101.16645312097168
101.29012636644632
101.53509883676679
101.99952559005456
102.84757006966353
104.33886364559027
106.86100643233725
110.95747448234965
117.33905859443261
126.8649976903066
140.48281671024327
159.1262720361798
183.58578927504036
214.3818482651447
218.71475044751244
187.3460165705192
162.19217458884864
142.87482384624485
128.68914122046388
118.73780888209758
112.07268047194161
107.81124204451912
105.21005593081426
103.69382165580714
102.84955887951382
102.40051117519037
102.17281634083184
102.06406335294824
102.01832330097687
102.00896800062394
102.02884839263481
102.08694404330349
102.21098045286203
102.45618703469995
102.92088100382017
103.76942133777855
105.26180035109309
107.78636332420801
111.88812866535939
118.28098550387661
127.83006505665287
141.49373254732032
160.22438639724018
184.84279030451603
215.9154166732402
218.99943329401162
187.75133912110564
162.74197036752344
143.58597772325672
129.5682206260599
119.77970023959035
113.26180774757918
109.12465005909363
106.62157036676855
105.17785405834599
104.3838387068156
103.96746645233269
103.75973954851558
103.6624747752485
103.62297018089153
103.61681808699954
103.63826766634577
103.69711792353715
103.8215580755619
104.06710493231049
104.53233713375803
105.38201282222356
106.87689860116382
109.40691734695206
113.52021268316602
119.93665334251723
129.5322191181237
143.28399823255285
162.17481301599253
187.07160089062515
218.60567046045068
219.58069857666757
188.56051544174517
163.81424199675035
144.9410464837078
131.20584231879224
121.68008747677764
115.38997189369344
111.43717728329071
109.07367754481974
107.72887814880654
107.00056120469401
106.62512750531705
106.44137596476376
106.35733444526964
106.3247149214479
106.32196383981332
106.3450309050207
106.40467254161356
106.52962573865909
106.77580167752913
107.24224951706837
108.09455705608225
109.59512526049336
112.13708363064728
116.27465248696373
122.73865977057227
132.42395935634488
146.3381655611905
165.51043321344926
190.87277463478844
223.1397030080712
220.70685546137452
190.0921280919488
165.79652345087956
147.38829134519858
134.0985084878844
124.96972536831055
119.00945362141316
115.31274691398669
113.13519176227811
111.91671791215082
111.26879352849193
110.94136141263449
110.78455875314184
110.7147762483295
110.68929191633202
110.68994635547473
110.71462010585249
110.77513700747512
110.90089289572113
111.14840736072682
111.61764699574898
112.47591852764828
113.988943900506
116.55608161367161
120.74274731454469
127.29885344733087
137.1500069638549
151.35026867338325
170.993869110653
197.0961620947783
230.4664024274627
222.77392121004615
192.8374692763852
169.2659641269396
151.57343224662557
138.93992623645042
130.37136381099168
124.85768269616776
121.49376404824487
119.54784658635218
118.48014603343306
117.92414190409866
117.64931415347995
117.5208395093151
117.46545288501241
117.44691364035232
117.45081191800092
117.47708839825782
117.53873743967264
117.66602112857451
117.91652243185085
118.39204685708195
119.2633695821418
120.80266089471654
123.42078070151882
127.7026111822464
134.42922716581575
144.57290755097603
159.25267691318777
179.64549836016994
206.8607322468611
241.79793588637193
226.36567935796484
197.4942075827375
175.01126864401664
158.34671641685435
146.61449837233877
138.78400755088924
133.83582168201153
130.8758721141063
129.1992412872866
128.29938896960095
127.84143480358354
127.62042446307015
127.51978160173415
127.47801385425936
127.46585414673487
127.47276214609805
127.50079333298886
127.56428106240652
127.694797942879
127.9519333123632
128.44114084573212
129.3399029180482
130.93227491993585
133.6491358047347
138.10714933432155
145.1346207460557
155.76886776284778
171.21071472684125
192.72891089364623
221.5201856480754
258.5448771887765
232.27181151848993
204.9673155110525
184.0108895993784
168.7180925504052
158.13784212491237
151.21780864764477
146.9381823670132
144.43512353614727
143.04994698449573
142.32409044710823
141.96360275068636
141.79396225424694
141.71887980216877
141.6892147723559
141.68267047239996
141.6924796110982
141.72287696777545
141.7899270913482
141.92745449469842
142.19890957829512
142.71673364742298
143.6707240439047
145.36559247111128
148.26485184859106
153.03335378550835
160.56509422774513
171.97881767082401
188.56450161028354
211.67224191624504
242.55123078064182
282.1640494604749
241.46745451084982
216.32041557242667
197.34504309501756
183.7394845524834
174.54690183665414
168.67558445283743
165.13092148444096
163.1078759073271
162.01579696090727
161.45769175072158
161.1874375314563
161.0635512028702
161.01045902670742
160.99099183303792
160.9893839398004
161.00246474588317
161.03690300388033
161.1113850927602
161.26385657600582
161.56504616185737
162.1401374280061
163.20024149416707
165.08367040975074
168.30335506118064
173.59114752402527
181.92323170352591
194.50651177916453
212.70728083052785
237.91440599537665
271.3554380801239
313.91359319937465
255.0543730313193
232.68308816337554
215.97451548951403
204.378128339903
196.7461166426478
191.9944202260622
189.19798918067306
187.64236282659454
186.82385714567448
186.4161157268964
186.22368035559006
186.13787174931824
186.10260551863985
186.0915186169135
186.0946996265734
186.11254664990267
186.15491896278533
186.24496251953607
186.42819946229736
186.78849432801366
187.47294647389293
188.7271825487954
190.94023375003366
194.69368368304646
200.80326297473212
210.3343872428448
224.56944907552557
244.9082557346481
272.6958324595531
308.9884413713508
354.5132613599048
274.5164752738151
254.61178010806879
240.73342530047222
231.34965463900014
225.3324081286006
221.68260049723452
219.5901100034518
218.4560105759091
217.874476899426
217.5920884002294
217.46225136566542
217.40619100071112
217.38480152430844
217.3809468740935
217.39001182187778
217.41644102698316
217.47501039385534
217.59676575931897
217.8407170199551
218.31314570802527
219.19642759795212
220.78804686021505
223.5472599699092
228.14151210823093
235.47787062230245
246.69903124830816
263.12240552401136
286.1074409316925
316.84807989288737
356.0833380923243
402.7519473790957
