# vtk DataFile Version 2.0
Unstructured Grid Example
ASCII
DATASET UNSTRUCTURED_GRID

POINTS 961 float
0.150000006 -0.00839745998 0
0.146666661 -0.00839745998 0
0.143333331 -0.00839745998 0
0.140000001 -0.00839745998 0
0.13666667 -0.00839745998 0
0.13333334 -0.00839745998 0
0.129999995 -0.00839745998 0
0.126666665 -0.00839745998 0
0.123333335 -0.00839745998 0
0.119999997 -0.00839745998 0
0.116666667 -0.00839745998 0
0.113333337 -0.00839745998 0
0.109999999 -0.00839745998 0
0.106666669 -0.00839745998 0
0.103333332 -0.00839745998 0
0.100000001 -0.00839745998 0
0.0966666639 -0.00839745998 0
0.0933333337 -0.00839745998 0
0.0900000036 -0.00839745998 0
0.086666666 -0.00839745998 0
0.0833333358 -0.00839745998 0
0.0799999982 -0.00839745998 0
0.0766666681 -0.00839745998 0
0.0733333305 -0.00839745998 0
0.0700000003 -0.00839745998 0
0.0666666701 -0.00839745998 0
0.0633333325 -0.00839745998 0
0.0599999987 -0.00839745998 0
0.0566666685 -0.00839745998 0
0.0533333346 -0.00839745998 0
0.0500000007 -0.00839745998 0
0.148333326 -0.0112842107 0
0.144999996 -0.0112842107 0
0.141666666 -0.0112842107 0
0.138333336 -0.0112842107 0
0.135000005 -0.0112842107 0
0.13166666 -0.0112842107 0
0.12833333 -0.0112842107 0
0.125 -0.0112842107 0
0.12166667 -0.0112842107 0
0.118333332 -0.0112842107 0
0.115000002 -0.0112842107 0
0.111666664 -0.0112842107 0
0.108333334 -0.0112842107 0
0.104999997 -0.0112842107 0
0.101666667 -0.0112842107 0
0.0983333364 -0.0112842107 0
0.0949999988 -0.0112842107 0
0.0916666687 -0.0112842107 0
0.088333331 -0.0112842107 0
0.0850000009 -0.0112842107 0
0.0816666633 -0.0112842107 0
0.0783333331 -0.0112842107 0
0.075000003 -0.0112842107 0
0.0716666654 -0.0112842107 0
0.0683333352 -0.0112842107 0
0.0649999976 -0.0112842107 0
0.0616666675 -0.0112842107 0
0.0583333336 -0.0112842107 0
0.0549999997 -0.0112842107 0
0.0516666658 -0.0112842107 0
0.0483333319 -0.0112842107 0
0.146666661 -0.0141709624 0
0.143333331 -0.0141709624 0
0.140000001 -0.0141709624 0
0.13666667 -0.0141709624 0
0.13333334 -0.0141709624 0
0.129999995 -0.0141709624 0
0.126666665 -0.0141709624 0
0.123333335 -0.0141709624 0
0.119999997 -0.0141709624 0
0.116666667 -0.0141709624 0
0.113333337 -0.0141709624 0
0.109999999 -0.0141709624 0
0.106666669 -0.0141709624 0
0.103333332 -0.0141709624 0
0.100000001 -0.0141709624 0
0.0966666639 -0.0141709624 0
0.0933333337 -0.0141709624 0
0.0900000036 -0.0141709624 0
0.086666666 -0.0141709624 0
0.0833333358 -0.0141709624 0
0.0799999982 -0.0141709624 0
0.0766666681 -0.0141709624 0
0.0733333305 -0.0141709624 0
0.0700000003 -0.0141709624 0
0.0666666701 -0.0141709624 0
0.0633333325 -0.0141709624 0
0.0599999987 -0.0141709624 0
0.0566666685 -0.0141709624 0
0.0533333346 -0.0141709624 0
0.0500000007 -0.0141709624 0
0.0466666669 -0.0141709624 0
0.144999996 -0.0170577131 0
0.141666666 -0.0170577131 0
0.138333336 -0.0170577131 0
0.135000005 -0.0170577131 0
0.13166666 -0.0170577131 0
0.12833333 -0.0170577131 0
0.125 -0.0170577131 0
0.12166667 -0.0170577131 0
0.118333332 -0.0170577131 0
0.115000002 -0.0170577131 0
0.111666664 -0.0170577131 0
0.108333334 -0.0170577131 0
0.104999997 -0.0170577131 0
0.101666667 -0.0170577131 0
0.0983333364 -0.0170577131 0
0.0949999988 -0.0170577131 0
0.0916666687 -0.0170577131 0
0.088333331 -0.0170577131 0
0.0850000009 -0.0170577131 0
0.0816666633 -0.0170577131 0
0.0783333331 -0.0170577131 0
0.075000003 -0.0170577131 0
0.0716666654 -0.0170577131 0
0.0683333352 -0.0170577131 0
0.0649999976 -0.0170577131 0
0.0616666675 -0.0170577131 0
0.0583333336 -0.0170577131 0
0.0549999997 -0.0170577131 0
0.0516666658 -0.0170577131 0
0.0483333319 -0.0170577131 0
0.0450000018 -0.0170577131 0
0.143333331 -0.0199444648 0
0.140000001 -0.0199444648 0
0.13666667 -0.0199444648 0
0.13333334 -0.0199444648 0
0.129999995 -0.0199444648 0
0.126666665 -0.0199444648 0
0.123333335 -0.0199444648 0
0.119999997 -0.0199444648 0
0.116666667 -0.0199444648 0
0.113333337 -0.0199444648 0
0.109999999 -0.0199444648 0
0.106666669 -0.0199444648 0
0.103333332 -0.0199444648 0
0.100000001 -0.0199444648 0
0.0966666639 -0.0199444648 0
0.0933333337 -0.0199444648 0
0.0900000036 -0.0199444648 0
0.086666666 -0.0199444648 0
0.0833333358 -0.0199444648 0
0.0799999982 -0.0199444648 0
0.0766666681 -0.0199444648 0
0.0733333305 -0.0199444648 0
0.0700000003 -0.0199444648 0
0.0666666701 -0.0199444648 0
0.0633333325 -0.0199444648 0
0.0599999987 -0.0199444648 0
0.0566666685 -0.0199444648 0
0.0533333346 -0.0199444648 0
0.0500000007 -0.0199444648 0
0.0466666669 -0.0199444648 0
0.043333333 -0.0199444648 0
0.141666666 -0.0228312165 0
0.138333336 -0.0228312165 0
0.135000005 -0.0228312165 0
0.13166666 -0.0228312165 0
0.12833333 -0.0228312165 0
0.125 -0.0228312165 0
0.12166667 -0.0228312165 0
0.118333332 -0.0228312165 0
0.115000002 -0.0228312165 0
0.111666664 -0.0228312165 0
0.108333334 -0.0228312165 0
0.104999997 -0.0228312165 0
0.101666667 -0.0228312165 0
0.0983333364 -0.0228312165 0
0.0949999988 -0.0228312165 0
0.0916666687 -0.0228312165 0
0.088333331 -0.0228312165 0
0.0850000009 -0.0228312165 0
0.0816666633 -0.0228312165 0
0.0783333331 -0.0228312165 0
0.075000003 -0.0228312165 0
0.0716666654 -0.0228312165 0
0.0683333352 -0.0228312165 0
0.0649999976 -0.0228312165 0
0.0616666675 -0.0228312165 0
0.0583333336 -0.0228312165 0
0.0549999997 -0.0228312165 0
0.0516666658 -0.0228312165 0
0.0483333319 -0.0228312165 0
0.0450000018 -0.0228312165 0
0.0416666679 -0.0228312165 0
0.140000001 -0.0257179681 0
0.13666667 -0.0257179681 0
0.13333334 -0.0257179681 0
0.129999995 -0.0257179681 0
0.126666665 -0.0257179681 0
0.123333335 -0.0257179681 0
0.119999997 -0.0257179681 0
0.116666667 -0.0257179681 0
0.113333337 -0.0257179681 0
0.109999999 -0.0257179681 0
0.106666669 -0.0257179681 0
0.103333332 -0.0257179681 0
0.100000001 -0.0257179681 0
0.0966666639 -0.0257179681 0
0.0933333337 -0.0257179681 0
0.0900000036 -0.0257179681 0
0.086666666 -0.0257179681 0
0.0833333358 -0.0257179681 0
0.0799999982 -0.0257179681 0
0.0766666681 -0.0257179681 0
0.0733333305 -0.0257179681 0
0.0700000003 -0.0257179681 0
0.0666666701 -0.0257179681 0
0.0633333325 -0.0257179681 0
0.0599999987 -0.0257179681 0
0.0566666685 -0.0257179681 0
0.0533333346 -0.0257179681 0
0.0500000007 -0.0257179681 0
0.0466666669 -0.0257179681 0
0.043333333 -0.0257179681 0
0.0399999991 -0.0257179681 0
0.138333336 -0.0286047198 0
0.135000005 -0.0286047198 0
0.13166666 -0.0286047198 0
0.12833333 -0.0286047198 0
0.125 -0.0286047198 0
0.12166667 -0.0286047198 0
0.118333332 -0.0286047198 0
0.115000002 -0.0286047198 0
0.111666664 -0.0286047198 0
0.108333334 -0.0286047198 0
0.104999997 -0.0286047198 0
0.101666667 -0.0286047198 0
0.0983333364 -0.0286047198 0
0.0949999988 -0.0286047198 0
0.0916666687 -0.0286047198 0
0.088333331 -0.0286047198 0
0.0850000009 -0.0286047198 0
0.0816666633 -0.0286047198 0
0.0783333331 -0.0286047198 0
0.075000003 -0.0286047198 0
0.0716666654 -0.0286047198 0
0.0683333352 -0.0286047198 0
0.0649999976 -0.0286047198 0
0.0616666675 -0.0286047198 0
0.0583333336 -0.0286047198 0
0.0549999997 -0.0286047198 0
0.0516666658 -0.0286047198 0
0.0483333319 -0.0286047198 0
0.0450000018 -0.0286047198 0
0.0416666679 -0.0286047198 0
0.038333334 -0.0286047198 0
0.13666667 -0.0314914696 0
0.13333334 -0.0314914696 0
0.129999995 -0.0314914696 0
0.126666665 -0.0314914696 0
0.123333335 -0.0314914696 0
0.119999997 -0.0314914696 0
0.116666667 -0.0314914696 0
0.113333337 -0.0314914696 0
0.109999999 -0.0314914696 0
0.106666669 -0.0314914696 0
0.103333332 -0.0314914696 0
0.100000001 -0.0314914696 0
0.0966666639 -0.0314914696 0
0.0933333337 -0.0314914696 0
0.0900000036 -0.0314914696 0
0.086666666 -0.0314914696 0
0.0833333358 -0.0314914696 0
0.0799999982 -0.0314914696 0
0.0766666681 -0.0314914696 0
0.0733333305 -0.0314914696 0
0.0700000003 -0.0314914696 0
0.0666666701 -0.0314914696 0
0.0633333325 -0.0314914696 0
0.0599999987 -0.0314914696 0
0.0566666685 -0.0314914696 0
0.0533333346 -0.0314914696 0
0.0500000007 -0.0314914696 0
0.0466666669 -0.0314914696 0
0.043333333 -0.0314914696 0
0.0399999991 -0.0314914696 0
0.0366666652 -0.0314914696 0
0.135000005 -0.0343782231 0
0.13166666 -0.0343782231 0
0.12833333 -0.0343782231 0
0.125 -0.0343782231 0
0.12166667 -0.0343782231 0
0.118333332 -0.0343782231 0
0.115000002 -0.0343782231 0
0.111666664 -0.0343782231 0
0.108333334 -0.0343782231 0
0.104999997 -0.0343782231 0
0.101666667 -0.0343782231 0
0.0983333364 -0.0343782231 0
0.0949999988 -0.0343782231 0
0.0916666687 -0.0343782231 0
0.088333331 -0.0343782231 0
0.0850000009 -0.0343782231 0
0.0816666633 -0.0343782231 0
0.0783333331 -0.0343782231 0
0.075000003 -0.0343782231 0
0.0716666654 -0.0343782231 0
0.0683333352 -0.0343782231 0
0.0649999976 -0.0343782231 0
0.0616666675 -0.0343782231 0
0.0583333336 -0.0343782231 0
0.0549999997 -0.0343782231 0
0.0516666658 -0.0343782231 0
0.0483333319 -0.0343782231 0
0.0450000018 -0.0343782231 0
0.0416666679 -0.0343782231 0
0.038333334 -0.0343782231 0
0.0350000001 -0.0343782231 0
0.13333334 -0.0372649729 0
0.129999995 -0.0372649729 0
0.126666665 -0.0372649729 0
0.123333335 -0.0372649729 0
0.119999997 -0.0372649729 0
0.116666667 -0.0372649729 0
0.113333337 -0.0372649729 0
0.109999999 -0.0372649729 0
0.106666669 -0.0372649729 0
0.103333332 -0.0372649729 0
0.100000001 -0.0372649729 0
0.0966666639 -0.0372649729 0
0.0933333337 -0.0372649729 0
0.0900000036 -0.0372649729 0
0.086666666 -0.0372649729 0
0.0833333358 -0.0372649729 0
0.0799999982 -0.0372649729 0
0.0766666681 -0.0372649729 0
0.0733333305 -0.0372649729 0
0.0700000003 -0.0372649729 0
0.0666666701 -0.0372649729 0
0.0633333325 -0.0372649729 0
0.0599999987 -0.0372649729 0
0.0566666685 -0.0372649729 0
0.0533333346 -0.0372649729 0
0.0500000007 -0.0372649729 0
0.0466666669 -0.0372649729 0
0.043333333 -0.0372649729 0
0.0399999991 -0.0372649729 0
0.0366666652 -0.0372649729 0
0.0333333351 -0.0372649729 0
0.13166666 -0.0401517227 0
0.12833333 -0.0401517227 0
0.125 -0.0401517227 0
0.12166667 -0.0401517227 0
0.118333332 -0.0401517227 0
0.115000002 -0.0401517227 0
0.111666664 -0.0401517227 0
[...]
POINT_DATA 961
SCALARS Temp float 1
LOOKUP_TABLE default
206.29783765864826
165.6762328294849
146.77084322481605
140.4666544951087
138.61405016904183
138.10036148502712
137.96262423106535
137.92650098613228
137.91718778663588
137.91481542304388
137.9142134563044
137.91407054857365
137.9140325369118
137.91402457745338
137.91402517234965
137.91402047136805
137.91401939501986
137.9140154291908
137.91402127811907
137.91401996909045
137.91402192144332
137.91402578206768
137.91402980048932
137.91408173030436
137.91442594083597
137.9167105923293
137.93144426997577
138.02499257407135
138.60146846514542
141.9645623858833
157.54534003908105
170.64445338593487
133.3437585633245
119.62775457954142
115.29703276630065
114.0454178367913
113.70036662515336
113.60808497219746
113.58393267107034
113.57771405260424
113.57612987989455
113.57573436347754
113.57563365043742
113.57560887685861
113.57560332741447
113.57559882206439
113.57560181444727
113.5755998715546
113.57560227643434
113.57560093377845
113.57560117230732
113.57560218475466
113.57560252793922
113.57563033555837
113.57578707600015
113.57681608608516
113.58335839541037
113.62415826879621
113.8693560600968
115.25053754989287
121.67546702761037
140.89058608713498
152.75092972259003
121.37142426665343
109.49945803447473
105.73696902444809
104.63765978576578
104.33186903230484
104.24953644729553
104.22788062311217
104.22228171427759
104.22085351971809
104.22049545876898
104.22040446997497
104.22038304043048
104.22037668659205
104.22037636664655
104.220375083984
104.22037422037859
104.22037589376005
104.22037495883313
104.2203761278064
104.22037652911973
104.22038756785993
104.22044997692247
104.220850373188
104.22334889252956
104.2384602323871
104.32603451126332
104.79833137003105
106.9803911380326
114.84719108619997
137.4225016643312
146.31118482676496
117.4928799411699
106.29159468742553
102.68638116919966
101.6245594160916
101.32766684512579
101.24745626533004
101.22630825165366
101.22083277266097
101.21943586202048
101.21908284696282
101.2189946898669
101.2189727199691
101.21896709929806
101.21896621309797
101.21896554623711
101.21896598541865
101.2189656705967
101.21896583031058
101.21896625163365
101.2189696398854
101.21899311108513
101.21913513053447
101.21999765027367
101.22505029625636
101.25329195582864
101.40000419261847
102.0714580766248
104.6720942527996
113.41254172864922
136.89427563921518
144.2911129238493
116.34845258623122
105.35290465814656
101.7918587412808
100.73944658859745
100.44460754417385
100.36485404166075
100.34380985506264
100.33835894810024
100.33696731959037
100.3366158853541
100.33652809005538
100.3365062054197
100.33650096421218
100.33649952610052
100.33649916423083
100.33649923641958
100.33649915690744
100.33649941731169
100.33650056972273
100.3365085136943
100.33655547437029
100.33683259601519
100.33840792824753
100.34692642056302
100.38983755687289
100.58433970755385
101.36363496895885
104.17956942442393
113.17240385967352
136.81238240710474
143.70571302027585
116.02853793975909
105.09150852806722
101.54242020754076
100.49241718259941
100.19806537003134
100.11841339621628
100.09739114079092
100.0919451822352
100.09055445994565
100.09020338549618
100.09011557383026
100.09009377310014
100.09008843316228
100.09008709061318
100.09008681673801
100.09008672050273
100.09008677211688
100.09008716649642
100.0900896516644
100.09010443118433
100.09018891799813
100.09065563468576
100.0931068605378
100.10514673006521
100.15922938400972
100.37984196405478
101.21034008021336
104.09136112380749
113.13388970346253
136.80007112775414
143.54409811420874
115.9422442009732
105.02110736342918
101.47516379910273
100.42577257713842
100.13153867222513
100.05190981122347
100.03089239700098
100.0254473885155
100.02405690237549
100.02370588075469
100.02361808346933
100.02359630741752
100.02359092708843
100.02358960866859
100.0235893012929
100.02358923712868
100.02358935250939
100.02359010860974
100.02359454490934
100.02361926946828
100.02375229888744
100.02443349811993
100.02771018416611
100.042310228984
100.10248165031368
100.33496699384084
101.18147867580203
104.07655883747441
113.12793366490766
136.79824986112533
143.50090786231058
115.91954973846222
105.00256349248819
101.45746066202518
100.40822236004843
100.11401703905672
100.03439343195883
100.01337707326847
100.00793224698782
100.00654181832127
100.00619080005116
100.00610300985466
100.00608122607025
100.00607585340873
100.00607454107796
100.00607422419678
100.00607418567627
100.00607439356523
100.0060756715198
100.00608267907447
100.00611947701144
100.00630377742125
100.00717499138884
100.01102939093983
100.02701459408877
100.08988806396471
100.3261906160418
101.17642553879895
104.07417652515814
113.12701566389225
136.79796359351855
143.48960743842488
115.91369777911228
104.99777650801724
101.45288499962022
100.40368385524846
100.10948474465056
100.0298627011226
100.0088465616372
100.00340177356071
100.00201135616778
100.00166033952826
100.00157255125724
100.00155076471195
100.00154539386679
100.00154407977617
100.00154376955285
100.00154375739918
100.00154409981397
100.00154602896237
100.00155596551195
100.00160478359312
100.00183220827222
100.00283220289582
100.0069963054687
100.02358760392035
100.08735017375972
100.32459410088006
101.17558056823525
104.07380692456093
113.12689127888811
136.79794370064315
143.48673306240414
115.91214334393436
104.9965697683125
101.45172152220546
100.40252740698206
100.10832898800776
100.02870719632969
100.00769105192443
100.00224629531012
100.00085587650877
100.00050486176164
100.0004170728973
100.00039528687526
100.00038991662353
100.00038860302593
100.00038830021631
100.0003883217371
100.00038882455885
100.00039145208848
100.00040416347552
100.00046265773506
100.000718507309
100.00178686459067
100.00608538902897
100.0228802383242
100.08687312980614
100.32431800988016
101.17544294067874
104.07374524867677
113.12685943879599
136.79791961876003
143.48604225430395
115.91178306035933
104.99627110206777
101.45142905428108
100.40223438060622
100.10803752236245
100.02841579014385
100.0073996348962
100.00195488981524
100.00056446998431
100.00021345572704
100.00012566663098
100.0001038808805
100.0000985108049
100.00009719909059
100.00009690476953
100.00009696501169
100.00009763200951
100.00010089172362
100.00011575357942
100.00018047130453
100.00045126633736
100.00154917081623
100.00589365254702
100.02274343018199
100.08678788065029
100.32427164605079
101.17542258595392
104.073741185144
113.12687226749419
136.7979197235342
143.4857739182882
115.91171208091868
104.996198899316
101.45135694386497
100.4021611567428
100.10796468248945
100.02834286319803
100.00732681582083
100.00188206459251
100.00049165058326
100.00014063620355
100.00005284703973
100.00003106144905
100.00002569178464
100.0000243822168
100.0000240971102
100.00002419540411
100.00002500499369
100.00002873887182
100.0000449543067
100.00011291505304
100.00039015520953
100.00149832305559
100.00585566285376
100.02271830434425
100.0867733141891
100.32426414173486
101.17541895338621
104.0737393354242
113.12686521866215
136.79793656645
143.4857571408401
115.91170810465707
104.99618478417545
101.45133504322504
100.40214336699097
100.10794676540101
100.02832480588582
100.00730877109345
100.00186400731972
100.00047359283346
100.00012257782845
100.00003478908802
100.00001300370235
100.0000076346693
100.00000632739288
100.00000605109481
100.00000618134975
100.00000709481665
100.00001112145222
100.00002803624548
100.00009739425771
100.00037690662818
100.00148803224525
100.00584848881405
100.02271383464796
100.08677074085091
100.32426308890315
101.17541894370453
104.07374015964965
113.12685262693424
136.79792387146063
143.48574104095835
115.911697421418
104.99618074133299
101.45132900996956
100.40213886207408
100.10794194694492
100.02832036887908
100.00730430194866
100.00185955943911
100.00046914480544
100.00011812973575
100.00003034166019
100.00000855693726
100.00000318898957
100.00000188415459
100.00000161528072
100.00000176837084
100.00000274497472
100.00000692175742
100.00002413804751
100.00009399510091
100.00037417993406
100.001486051706
100.0058472000925
100.02271310266653
100.08677034892953
100.32426280581491
101.17541847635148
104.07373752925015
113.12686782869514
136.79792396349
143.48575018411023
115.91170280428851
104.99616654503963
101.45132904990504
100.40213844348008
100.10794090881392
100.02831933723638
100.00730321760695
100.00185847407487
100.0004680586214
100.00011704692383
100.00002926123193
100.00000747899351
100.00000211359864
100.0000008119194
100.00000054900019
100.00000071620101
100.00000172518146
100.00000596682125
100.00002329206671
100.00009330055832
100.00037365958298
100.00148569936272
100.00584698405255
100.02271296060172
100.08677033701026
100.32426291021746
101.17541891432295
104.07373502504346
113.12686405964494
136.79792283249563
143.48573677617233
115.91170289252977
104.99616300210383
101.45132938355539
100.40213702687564
100.10794071095768
100.0283189990877
100.00730296563661
100.00185822806186
100.0004678195211
100.00011681837185
100.0000290429841
100.00000727030103
100.000001912529
100.00000061680547
100.00000035960355
100.00000053505929
100.00000155851194
100.00000582406065
100.0000231831183
100.00009323193477
100.00037363246035
100.00148570939304
100.0058470262176
100.02271301403461
100.08677037031651
100.32426290884062
101.17541840891474
104.07374047238724
113.12686118821395
136.79792969033807
143.48575344971317
115.9116725543874
104.99617008996107
101.4513322895341
100.40213720547248
100.1079408627359
100.02831898261795
100.0073029711818
100.00185825877216
100.00046789639079
100.0001169392079
100.00002920484762
100.00000746524924
100.00000213029033
100.00000084841766
100.00000059935486
100.0000007807013
100.00000181038938
100.0000060837737
100.00002345219919
100.00009351072663
100.00037391985009
100.00148600285448
100.00584731746244
100.02271332614296
100.0867707164633
100.32426337749321
101.17541794584531
104.07373852785216
113.12685853737953
136.79792164846268
143.48577301546734
115.91167867243988
104.99617360010033
101.45132816850625
100.40213737263787
100.10794065056344
100.02831919787135
100.00730331869747
100.00185876591767
100.00046859105255
100.00011781301524
100.0000302274764
100.00000859178746
100.00000331862022
100.0000020683878
100.00000183372039
100.0000020213996
100.00000305447126
100.00000733045871
100.00002470129735
100.0000947621746
100.000375173487
100.00148725910202
100.0058485730005
100.02271457596952
100.08677195976132
100.32426443964182
101.17542065245166
104.07373820119673
113.12686311168457
136.7979279539806
143.48572458515957
115.91168768164617
104.99617769142168
101.4513274649807
100.40213801983761
100.10794134233198
100.02832044690116
100.00730520671574
100.00186144539695
100.00047204490645
100.00012192850082
100.00003481815234
100.00001346830005
100.00000834142448
100.00000715562385
100.00000694545466
100.0000071414393
100.0000081772877
100.00001245442162
100.0000298259298
100.00009988727238
100.00038029889255
100.00149238376054
100.0058537059954
100.02271973043388
100.08677718645141
100.32426954400076
101.17542578633285
104.07374508648371
113.12687114269681
136.79794024993964
143.48574615395583
115.9117023093276
104.99616695778117
101.45133009237449
100.40213972391899
100.10794578972082
100.028327336189
100.00731516546813
100.00187469762751
100.00048822009164
100.00014026384557
100.00005447243706
100.00003380205636
100.0000289743949
100.00002790065732
100.00002772665577
100.0000279330081
100.00002897162804
100.00003324951318
100.00005062129247
100.00012068279078
100.0004010945852
100.00151317828683
100.00587449550237
100.02274050349183
100.0867978529768
100.32429049561816
101.17544525208946
104.07376428775152
113.12688922234125
136.797965415275
143.4857405213525
115.91170664273132
104.99616688231069
101.45133891585499
100.40215388127169
100.10796958130098
100.02836343837137
100.00736513251007
100.00193745622902
100.00056071698549
100.00021881455675
100.00013616310518
100.00011687866895
100.0001125655747
100.00011165468628
100.00011152605147
100.00011174383896
100.00011278509898
100.00011706359311
100.00013443552014
100.00020449705981
100.00048490863308
100.0015969944381
100.00595831706633
100.02282434395107
100.08688166682158
100.32437435221996
101.17552991535095
104.07385126756638
113.12698729163124
136.79809126031404
143.4857394834421
115.91167171017125
104.99619302747287
101.45138132247985
100.40223443406103
100.108097915413
100.02854815704777
100.00760503138068
100.00222091035646
100.00087176863707
100.00054428553223
100.00046802130255
100.00045108729978
100.00044750330726
100.00044679024808
100.00044670995037
100.00044693877196
100.00044798242574
100.00045226137111
100.0004696334204
100.00053969498984
100.0008201065513
100.00193219213351
100.00629351480745
100.02315953179686
100.08721701446879
100.32470964124643
101.17586676071677
104.07419471971879
113.12736088427359
136.7986203955941
143.48582530737445
115.91176813678565
104.99634738569847
101.45164484924095
100.40267568749083
100.10876446406002
100.02944881607769
100.00869847437245
100.00343909205449
100.00215564177785
100.00185741214352
100.00179180923936
100.0017781085452
100.00177537759565
100.00177486831689
100.00177483296362
100.00177507044226
100.00177611600122
100.00178039547471
100.00179776773456
100.0018678292265
100.00214824103811
100.00326032765811
100.00762165472581
100.02448767090348
100.08854522088195
100.32603849750548
101.17719889619002
104.07554560372829
113.12880859901544
136.80063260928262
143.48596732492487
115.91219042830818
104.99714807354333
101.45310230382103
100.4050101120975
100.11206977895633
100.03359672432099
100.01340497633336
100.00844186079104
100.00729141891033
100.00704115582349
100.00698973592586
100.00697966519233
100.00697777208622
100.0069774400091
100.00697744155838
100.00697768683733
100.00697873319173
100.00698301293204
100.00700038400808
100.00707044627354
100.00735086045978
100.00846295524714
100.01282431233366
100.02969051821208
100.09374873932764
100.33124571235123
101.18242403993345
104.08086049478874
113.13458348683844
136.80864916470927
143.48711452397188
115.91459497674182
105.00174051651508
101.46096423248598
100.41679402160953
100.12747606113781
100.05147478919692
100.03260133166096
100.0282375708598
100.02730078669138
100.02711185621455
100.02707560670333
100.02706891612749
100.02706773392181
100.02706754227623
100.02706756050209
100.02706781164889
100.02706886171887
100.02707314376626
100.02709051547342
100.02716057828722
100.0274410028603
100.02855313605124
100.03291467657087
100.04978166751813
100.11384343692441
100.35135656062037
101.20261137486595
104.10141633989349
113.15694929047575
136.8397377800393
143.49373567204475
115.92818832817018
105.02691459358213
101.5014040964558
100.47246128204117
100.19392023291225
100.12368154201398
100.10747881897197
100.10405491239737
100.10337883268899
100.10325205322418
100.10322917242844
100.10322516488667
100.10322446486443
100.10322437591012
100.10322442395834
100.10322467215536
100.1032257218094
100.10322998447377
100.10324736539165
100.10331745330758
100.10359794300517
100.1047103022985
100.10907280102842
100.12594384435889
100.19002298888182
100.42761166551989
101.27920442666888
104.17956768427918
113.24237373623069
136.95856358897248
143.53115228530703
116.00343978177969
105.15853209515703
101.69513501840679
100.7123142093431
100.4583376477512
100.39983136396866
100.38769714525537
100.385357452229
100.38492905757313
100.38485348153633
100.38484044241382
100.38483838701205
100.38483805013581
100.38483789777924
100.38483797631817
100.38483826290282
100.38483933233591
100.38484360373154
100.3848609850952
100.38493114998599
100.38521187870293
100.38632557522885
100.39069329614007
100.40758583127432
100.47175341922889
100.7097078853144
101.56283802443959
104.46982984744265
113.56175011977706
137.40348177644262
143.7354967896791
116.40010344022066
105.79705365583241
102.52634371052048
101.6443767671551
101.4409961621825
101.39972616033086
101.39197216184117
101.39058721002078
101.39034892767282
101.39030878768473
101.39030213869897
101.390300828863
101.39030076371496
101.39030085976007
101.39030087748819
101.39030111090818
101.3903019338027
101.39030633310907
101.39032397948121
101.39039465347679
101.39067705565921
101.39179755338778
101.3961937370994
101.41320094636004
101.47782726462242
101.71760107420823
102.57790430163206
105.51346703225781
114.72090329181502
139.02004745835475
144.79423847180567
118.32842703235833
108.50566992220915
105.62459906597373
104.95542594775546
104.8228801120478
104.79862767260802
104.79439910018176
104.79368514137258
104.79356703461234
104.7935468376853
104.79354502676449
104.79354466960416
104.79354356004373
104.79354392157083
104.79354419716547
104.79354455220974
104.79354562496952
104.79355008529004
104.79356820227756
104.79364035495229
104.79393284781874
104.79509130216518
104.7996399005679
104.81725408147634
104.88425915809468
105.13317624661478
106.02767542020209
109.08635635869575
118.74096336073237
144.61790168745824
149.7165662579253
126.28033569224937
117.80121237068815
115.78362010052656
115.39242958637405
115.32241298259505
115.31043137328687
115.30843612006032
115.30811579077844
115.30806261939117
115.30805461648345
115.30805115241553
115.3080511735802
115.30805319660347
115.30805250108942
115.30805190212577
115.30805049541866
115.30805290486109
115.3080594032673
115.30808079558894
115.30816569443853
115.3085070403065
115.30986806326305
115.31521841983236
115.33596601796506
115.41500719006083
115.70893407242521
116.76479636358532
120.36296687620639
131.54572359737156
161.9280468108771
168.4160607589858
148.4760684202649
143.31339882525623
142.30436366590263
142.12441670726824
142.0937408929179
142.08864986290024
142.087830414509
142.08769397877614
142.0876684319931
142.08767092124808
142.08766766782298
142.0876685070325
142.08766772789988
142.08766824179474
142.087667703509
142.08766951641445
142.0876738297045
142.08768101784756
142.08771621052426
142.08786989829488
142.08847679993642
142.09088087501522
142.10028009557593
142.13648375577873
142.2730770722373
142.7736607807588
144.53006990115807
150.26465035196742
166.6474572456485
200.42367659645083
