# vtk DataFile Version 2.0
Unstructured Grid Example
ASCII
DATASET UNSTRUCTURED_GRID

POINTS 961 float
0.150000006 -0.00839745998 0
0.146666661 -0.00839745998 0
0.143333331 -0.00839745998 0
0.140000001 -0.00839745998 0
0.13666667 -0.00839745998 0
0.13333334 -0.00839745998 0
0.129999995 -0.00839745998 0
0.126666665 -0.00839745998 0
0.123333335 -0.00839745998 0
0.119999997 -0.00839745998 0
0.116666667 -0.00839745998 0
0.113333337 -0.00839745998 0
0.109999999 -0.00839745998 0
0.106666669 -0.00839745998 0
0.103333332 -0.00839745998 0
0.100000001 -0.00839745998 0
0.0966666639 -0.00839745998 0
0.0933333337 -0.00839745998 0
0.0900000036 -0.00839745998 0
0.086666666 -0.00839745998 0
0.0833333358 -0.00839745998 0
0.0799999982 -0.00839745998 0
0.0766666681 -0.00839745998 0
0.0733333305 -0.00839745998 0
0.0700000003 -0.00839745998 0
0.0666666701 -0.00839745998 0
0.0633333325 -0.00839745998 0
0.0599999987 -0.00839745998 0
0.0566666685 -0.00839745998 0
0.0533333346 -0.00839745998 0
0.0500000007 -0.00839745998 0
0.148333326 -0.0112842107 0
0.144999996 -0.0112842107 0
0.141666666 -0.0112842107 0
0.138333336 -0.0112842107 0
0.135000005 -0.0112842107 0
0.13166666 -0.0112842107 0
0.12833333 -0.0112842107 0
0.125 -0.0112842107 0
0.12166667 -0.0112842107 0
0.118333332 -0.0112842107 0
0.115000002 -0.0112842107 0
0.111666664 -0.0112842107 0
0.108333334 -0.0112842107 0
0.104999997 -0.0112842107 0
0.101666667 -0.0112842107 0
0.0983333364 -0.0112842107 0
0.0949999988 -0.0112842107 0
0.0916666687 -0.0112842107 0
0.088333331 -0.0112842107 0
0.0850000009 -0.0112842107 0
0.0816666633 -0.0112842107 0
0.0783333331 -0.0112842107 0
0.075000003 -0.0112842107 0
0.0716666654 -0.0112842107 0
0.0683333352 -0.0112842107 0
0.0649999976 -0.0112842107 0
0.0616666675 -0.0112842107 0
0.0583333336 -0.0112842107 0
0.0549999997 -0.0112842107 0
0.0516666658 -0.0112842107 0
0.0483333319 -0.0112842107 0
0.146666661 -0.0141709624 0
0.143333331 -0.0141709624 0
0.140000001 -0.0141709624 0
0.13666667 -0.0141709624 0
0.13333334 -0.0141709624 0
0.129999995 -0.0141709624 0
0.126666665 -0.0141709624 0
0.123333335 -0.0141709624 0
0.119999997 -0.0141709624 0
0.116666667 -0.0141709624 0
0.113333337 -0.0141709624 0
0.109999999 -0.0141709624 0
0.106666669 -0.0141709624 0
0.103333332 -0.0141709624 0
0.100000001 -0.0141709624 0
0.0966666639 -0.0141709624 0
0.0933333337 -0.0141709624 0
0.0900000036 -0.0141709624 0
0.086666666 -0.0141709624 0
0.0833333358 -0.0141709624 0
0.0799999982 -0.0141709624 0
0.0766666681 -0.0141709624 0
0.0733333305 -0.0141709624 0
0.0700000003 -0.0141709624 0
0.0666666701 -0.0141709624 0
0.0633333325 -0.0141709624 0
0.0599999987 -0.0141709624 0
0.0566666685 -0.0141709624 0
0.0533333346 -0.0141709624 0
0.0500000007 -0.0141709624 0
0.0466666669 -0.0141709624 0
0.144999996 -0.0170577131 0
0.141666666 -0.0170577131 0
0.138333336 -0.0170577131 0
0.135000005 -0.0170577131 0
0.13166666 -0.0170577131 0
0.12833333 -0.0170577131 0
0.125 -0.0170577131 0
0.12166667 -0.0170577131 0
0.118333332 -0.0170577131 0
0.115000002 -0.0170577131 0
0.111666664 -0.0170577131 0
0.108333334 -0.0170577131 0
0.104999997 -0.0170577131 0
0.101666667 -0.0170577131 0
0.0983333364 -0.0170577131 0
0.0949999988 -0.0170577131 0
0.0916666687 -0.0170577131 0
0.088333331 -0.0170577131 0
0.0850000009 -0.0170577131 0
0.0816666633 -0.0170577131 0
0.0783333331 -0.0170577131 0
0.075000003 -0.0170577131 0
0.0716666654 -0.0170577131 0
0.0683333352 -0.0170577131 0
0.0649999976 -0.0170577131 0
0.0616666675 -0.0170577131 0
0.0583333336 -0.0170577131 0
0.0549999997 -0.0170577131 0
0.0516666658 -0.0170577131 0
0.0483333319 -0.0170577131 0
0.0450000018 -0.0170577131 0
0.143333331 -0.0199444648 0
0.140000001 -0.0199444648 0
0.13666667 -0.0199444648 0
0.13333334 -0.0199444648 0
0.129999995 -0.0199444648 0
0.126666665 -0.0199444648 0
0.123333335 -0.0199444648 0
0.119999997 -0.0199444648 0
0.116666667 -0.0199444648 0
0.113333337 -0.0199444648 0
0.109999999 -0.0199444648 0
0.106666669 -0.0199444648 0
0.103333332 -0.0199444648 0
0.100000001 -0.0199444648 0
0.0966666639 -0.0199444648 0
0.0933333337 -0.0199444648 0
0.0900000036 -0.0199444648 0
0.086666666 -0.0199444648 0
0.0833333358 -0.0199444648 0
0.0799999982 -0.0199444648 0
0.0766666681 -0.0199444648 0
0.0733333305 -0.0199444648 0
0.0700000003 -0.0199444648 0
0.0666666701 -0.0199444648 0
0.0633333325 -0.0199444648 0
0.0599999987 -0.0199444648 0
0.0566666685 -0.0199444648 0
0.0533333346 -0.0199444648 0
0.0500000007 -0.0199444648 0
0.0466666669 -0.0199444648 0
0.043333333 -0.0199444648 0
0.141666666 -0.0228312165 0
0.138333336 -0.0228312165 0
0.135000005 -0.0228312165 0
0.13166666 -0.0228312165 0
0.12833333 -0.0228312165 0
0.125 -0.0228312165 0
0.12166667 -0.0228312165 0
0.118333332 -0.0228312165 0
0.115000002 -0.0228312165 0
0.111666664 -0.0228312165 0
0.108333334 -0.0228312165 0
0.104999997 -0.0228312165 0
0.101666667 -0.0228312165 0
0.0983333364 -0.0228312165 0
0.0949999988 -0.0228312165 0
0.0916666687 -0.0228312165 0
0.088333331 -0.0228312165 0
0.0850000009 -0.0228312165 0
0.0816666633 -0.0228312165 0
0.0783333331 -0.0228312165 0
0.075000003 -0.0228312165 0
0.0716666654 -0.0228312165 0
0.0683333352 -0.0228312165 0
0.0649999976 -0.0228312165 0
0.0616666675 -0.0228312165 0
0.0583333336 -0.0228312165 0
0.0549999997 -0.0228312165 0
0.0516666658 -0.0228312165 0
0.0483333319 -0.0228312165 0
0.0450000018 -0.0228312165 0
0.0416666679 -0.0228312165 0
0.140000001 -0.0257179681 0
0.13666667 -0.0257179681 0
0.13333334 -0.0257179681 0
0.129999995 -0.0257179681 0
0.126666665 -0.0257179681 0
0.123333335 -0.0257179681 0
0.119999997 -0.0257179681 0
0.116666667 -0.0257179681 0
0.113333337 -0.0257179681 0
0.109999999 -0.0257179681 0
0.106666669 -0.0257179681 0
0.103333332 -0.0257179681 0
0.100000001 -0.0257179681 0
0.0966666639 -0.0257179681 0
0.0933333337 -0.0257179681 0
0.0900000036 -0.0257179681 0
0.086666666 -0.0257179681 0
0.0833333358 -0.0257179681 0
0.0799999982 -0.0257179681 0
0.0766666681 -0.0257179681 0
0.0733333305 -0.0257179681 0
0.0700000003 -0.0257179681 0
0.0666666701 -0.0257179681 0
0.0633333325 -0.0257179681 0
0.0599999987 -0.0257179681 0
0.0566666685 -0.0257179681 0
0.0533333346 -0.0257179681 0
0.0500000007 -0.0257179681 0
0.0466666669 -0.0257179681 0
0.043333333 -0.0257179681 0
0.0399999991 -0.0257179681 0
0.138333336 -0.0286047198 0
0.135000005 -0.0286047198 0
0.13166666 -0.0286047198 0
0.12833333 -0.0286047198 0
0.125 -0.0286047198 0
0.12166667 -0.0286047198 0
0.118333332 -0.0286047198 0
0.115000002 -0.0286047198 0
0.111666664 -0.0286047198 0
0.108333334 -0.0286047198 0
0.104999997 -0.0286047198 0
0.101666667 -0.0286047198 0
0.0983333364 -0.0286047198 0
0.0949999988 -0.0286047198 0
0.0916666687 -0.0286047198 0
0.088333331 -0.0286047198 0
0.0850000009 -0.0286047198 0
0.0816666633 -0.0286047198 0
0.0783333331 -0.0286047198 0
0.075000003 -0.0286047198 0
0.0716666654 -0.0286047198 0
0.0683333352 -0.0286047198 0
0.0649999976 -0.0286047198 0
0.0616666675 -0.0286047198 0
0.0583333336 -0.0286047198 0
0.0549999997 -0.0286047198 0
0.0516666658 -0.0286047198 0
0.0483333319 -0.0286047198 0
0.0450000018 -0.0286047198 0
0.0416666679 -0.0286047198 0
0.038333334 -0.0286047198 0
0.13666667 -0.0314914696 0
0.13333334 -0.0314914696 0
0.129999995 -0.0314914696 0
0.126666665 -0.0314914696 0
0.123333335 -0.0314914696 0
0.119999997 -0.0314914696 0
0.116666667 -0.0314914696 0
0.113333337 -0.0314914696 0
0.109999999 -0.0314914696 0
0.106666669 -0.0314914696 0
0.103333332 -0.0314914696 0
0.100000001 -0.0314914696 0
0.0966666639 -0.0314914696 0
0.0933333337 -0.0314914696 0
0.0900000036 -0.0314914696 0
0.086666666 -0.0314914696 0
0.0833333358 -0.0314914696 0
0.0799999982 -0.0314914696 0
0.0766666681 -0.0314914696 0
0.0733333305 -0.0314914696 0
0.0700000003 -0.0314914696 0
0.0666666701 -0.0314914696 0
0.0633333325 -0.0314914696 0
0.0599999987 -0.0314914696 0
0.0566666685 -0.0314914696 0
0.0533333346 -0.0314914696 0
0.0500000007 -0.0314914696 0
0.0466666669 -0.0314914696 0
0.043333333 -0.0314914696 0
0.0399999991 -0.0314914696 0
0.0366666652 -0.0314914696 0
0.135000005 -0.0343782231 0
0.13166666 -0.0343782231 0
0.12833333 -0.0343782231 0
0.125 -0.0343782231 0
0.12166667 -0.0343782231 0
0.118333332 -0.0343782231 0
0.115000002 -0.0343782231 0
0.111666664 -0.0343782231 0
0.108333334 -0.0343782231 0
0.104999997 -0.0343782231 0
0.101666667 -0.0343782231 0
0.0983333364 -0.0343782231 0
0.0949999988 -0.0343782231 0
0.0916666687 -0.0343782231 0
0.088333331 -0.0343782231 0
0.0850000009 -0.0343782231 0
0.0816666633 -0.0343782231 0
0.0783333331 -0.0343782231 0
0.075000003 -0.0343782231 0
0.0716666654 -0.0343782231 0
0.0683333352 -0.0343782231 0
0.0649999976 -0.0343782231 0
0.0616666675 -0.0343782231 0
0.0583333336 -0.0343782231 0
0.0549999997 -0.0343782231 0
0.0516666658 -0.0343782231 0
0.0483333319 -0.0343782231 0
0.0450000018 -0.0343782231 0
0.0416666679 -0.0343782231 0
0.038333334 -0.0343782231 0
0.0350000001 -0.0343782231 0
0.13333334 -0.0372649729 0
0.129999995 -0.0372649729 0
0.126666665 -0.0372649729 0
0.123333335 -0.0372649729 0
0.119999997 -0.0372649729 0
0.116666667 -0.0372649729 0
0.113333337 -0.0372649729 0
0.109999999 -0.0372649729 0
0.106666669 -0.0372649729 0
0.103333332 -0.0372649729 0
0.100000001 -0.0372649729 0
0.0966666639 -0.0372649729 0
0.0933333337 -0.0372649729 0
0.0900000036 -0.0372649729 0
0.086666666 -0.0372649729 0
0.0833333358 -0.0372649729 0
0.0799999982 -0.0372649729 0
0.0766666681 -0.0372649729 0
0.0733333305 -0.0372649729 0
0.0700000003 -0.0372649729 0
0.0666666701 -0.0372649729 0
0.0633333325 -0.0372649729 0
0.0599999987 -0.0372649729 0
0.0566666685 -0.0372649729 0
0.0533333346 -0.0372649729 0
0.0500000007 -0.0372649729 0
0.0466666669 -0.0372649729 0
0.043333333 -0.0372649729 0
0.0399999991 -0.0372649729 0
0.0366666652 -0.0372649729 0
0.0333333351 -0.0372649729 0
0.13166666 -0.0401517227 0
0.12833333 -0.0401517227 0
0.125 -0.0401517227 0
0.12166667 -0.0401517227 0
0.118333332 -0.0401517227 0
0.115000002 -0.0401517227 0
0.111666664 -0.0401517227 0
[...]
POINT_DATA 961
SCALARS Temp float 1
LOOKUP_TABLE default
207.23332193461323
166.63678905273454
148.49694024794866
142.40797142718856
140.59967991358872
140.09436904715184
139.95819455450257
139.92237368206116
139.91312035677493
139.91076212527904
139.91016511989707
139.91001958624744
139.90998295170553
139.90997363356396
139.90997369667886
139.9099700527315
139.90997003560025
139.90996787558493
139.90997064757977
139.909970652058
139.90997106865072
139.90997518768222
139.9099840183339
139.9100616490528
139.91055763632895
139.91373061832653
139.9335976316474
140.0552549735788
140.77299955429189
144.71237619711366
161.39391962557033
166.63683524685442
132.486099835722
119.93455438055304
115.97212710068207
114.8241621992632
114.50716691400454
114.4223260604374
114.40011806652072
114.39440035608885
114.39294710429627
114.39258252256667
114.39249033696758
114.39246749665043
114.39246224900442
114.39245873689741
114.39246018929732
114.39246042334273
114.39246134677892
114.39246038776774
114.39246043442492
114.39246150061138
114.39246434579103
114.39249901913811
114.39271032872185
114.39404443935304
114.40232589777919
114.45251480508097
114.74466457413435
116.32885175507425
123.43565588553952
144.71238716667003
148.49693169469293
119.9345572423411
109.23525041647818
105.85121455789947
104.86361059922179
104.58913295311793
104.51529175438033
104.49588482039665
104.49087173678767
104.48959401198304
104.489273036149
104.48919255808127
104.48917258082095
104.48916761236693
104.48916683216451
104.48916603543925
104.48916547667878
104.48916623588731
104.48916620177657
104.48916650060784
104.4891683104968
104.48918155642887
104.48926170643925
104.48976203483568
104.49281482045305
104.51087708219708
104.6130893437796
105.15061076588056
107.5856809654084
116.32884355143288
140.7729989139109
142.40796566093053
115.97213258812674
105.85121966028004
102.61236436606542
101.6614049482614
101.3960546564865
101.32447281895226
101.30562164675155
101.30074579317917
101.29950248865762
101.29918867126815
101.29911024514966
101.29909079382689
101.299085811119
101.29908487630517
101.29908456131284
101.29908471759477
101.29908454870268
101.29908464035258
101.29908531928582
101.29908970239832
101.29911839456216
101.29929166627495
101.30032305435434
101.30625982375044
101.33884327110056
101.50513074680511
102.25648772732696
105.15061344250368
114.74467203986981
140.0552516237797
140.5996837192437
114.82416688823868
104.8636148305937
101.66140943354483
100.71882929250135
100.45543095469428
100.3843083753356
100.365566328402
100.3607166519175
100.35947945976504
100.35916732823452
100.3590893024509
100.35906994869448
100.35906524419119
100.35906401059641
100.35906369079571
100.35906369674953
100.35906371060295
100.35906394308586
100.35906547748313
100.3590750000584
100.35913125746539
100.3594580141592
100.36128831025555
100.37104518696167
100.41954949497602
100.6373463076895
101.5051298396771
104.61308899691248
114.45251308621617
139.9336027851044
140.09436768044287
114.50717536005354
104.58913851279993
101.39605114832324
100.4554299438712
100.19245638001915
100.12142847704062
100.10270805801588
100.09786346057
100.0966273472256
100.09631550277075
100.09623755544007
100.0962182094129
100.09621346237024
100.09621229278387
100.09621203064395
100.09621195906513
100.09621202083471
100.09621251369056
100.09621548992504
100.09623292694114
100.0963315542271
100.0968696110696
100.09966320380407
100.11324459556302
100.1738003257437
100.41954944093602
101.33884359996479
104.51087966443872
114.4023152429439
139.91372241117625
139.9581893036706
114.42233284925786
104.51530166068754
101.3244670220149
100.38430731166021
100.12142838386694
100.05042036011167
100.0317043589093
100.02686070711522
100.02562482772521
100.02531303935521
100.02523510478314
100.0252157785598
100.02521100947068
100.02520984029996
100.02520956476374
100.02520952050067
100.02520965801403
100.02521056179339
100.02521574610672
100.02524438723914
100.02539689172524
100.02617040136717
100.02986057452306
100.0462025237692
100.11324454587847
100.3710449354515
101.3062590751619
104.49281285374008
114.39404178942415
139.91056649014382
139.92237848851425
114.40012349027774
104.4958684595615
101.30561678651961
100.36556579621842
100.10270821887832
100.03170435046783
100.01298924341268
100.00814576341092
100.00690993173018
100.00659815324747
100.00652022010942
100.00650089050455
100.00649612668636
100.00649496202777
100.00649468399146
100.00649466114788
100.00649491136843
100.00649639776508
100.00650446528246
100.00654647041804
100.00675516351785
100.00773498715348
100.01204745090533
100.02986056283082
100.09966319821788
100.36128831785494
101.3003230125493
104.48975870014716
114.39269842481386
139.91005241146223
139.9131110490723
114.39441079270203
104.49085213930448
101.30074261902196
100.36071671834674
100.09786339851345
100.02686072334907
100.00814578461924
100.00330233586102
100.00206651425364
100.00175473714629
100.00167680561664
100.0016574745548
100.00165271094357
100.00165154612927
100.0016512748895
100.0016512820728
100.00165168330231
100.00165389507906
100.00166519944433
100.00172035780356
100.00197584206317
100.00309421652504
100.00773499385217
100.02617039357926
100.09686956686139
100.359457981635
101.29929090237756
104.48926225727536
114.39250142147799
139.90999681489845
139.91075967949644
114.39289911332352
104.48958611103188
101.29950235920619
100.35948045935496
100.09662739416332
100.02562488370171
100.00690993602053
100.00206651369678
100.000830691271
100.0005189155089
100.00044098369888
100.00042165301093
100.00041688993636
100.00041572622507
100.00041546280443
100.00041550820967
100.0004160872518
100.00041906919873
100.00043340621747
100.00049905400198
100.00078508309838
100.00197584044942
100.0067551599585
100.02539689355496
100.09633155635272
100.35913129026518
101.29911648528432
104.48917704898399
114.39245499048012
139.90996468521016
139.91020346122363
114.39255038646174
104.48927237957503
101.29919035211945
100.35916739130394
100.09631559781404
100.02531311165461
100.00659815153932
100.0017547387487
100.00051891534928
100.00020713999312
100.00012920805148
100.00010987752565
100.00010511476992
100.00010395311892
100.00010369918974
100.00010378750213
100.00010454712937
100.00010821931077
100.00012488524722
100.0001972129161
100.00049905440034
100.00172035844156
100.00654646761278
100.02524437677408
100.09623289715692
100.35907470438814
101.29908949022742
104.48916956552813
114.39246836173716
139.90996356747422
139.90999053799234
114.39248261124145
104.48919639385247
101.2991132346186
100.35908913425669
100.09623764219295
100.02523508545487
100.00652022002991
100.00167680199353
100.00044098370317
100.00012920821202
100.00005127620709
100.00003194584097
100.0000271835763
100.00002602427567
100.00002578056835
100.00002591064309
100.00002682577072
100.00003101097646
100.00004912819453
100.00012488546393
100.00043340658334
100.00166519847872
100.00650446977569
100.02521576143944
100.09621559672838
100.35906528070464
101.2990847272171
104.4891671762213
114.39246024933382
139.90998148858657
139.90998087831292
114.39247668852477
104.48918022344097
101.29909045825636
100.35907004718223
100.09621842745707
100.0252157544081
100.00650090082227
100.00165747209174
100.00042165341341
100.00010987742668
100.00003194579925
100.0000126156491
100.00000785406576
100.00000669728308
100.00000646322857
100.00000662810758
100.00000765552758
100.00001215431963
100.00003101091275
100.00010821926921
100.00041906967328
100.00165389234009
100.00649639597351
100.02521055595
100.09621246016542
100.35906387288114
101.29908450387742
104.48916797452793
114.39244505197419
139.90996869561022
139.9099688301285
114.39246723102656
104.48917593488567
101.29908430961258
100.35906520167033
100.09621334154811
100.02521100243484
100.0064961199927
100.00165270970228
100.00041689064429
100.00010511457951
100.00002718355505
100.00000785406176
100.00000309360732
100.00000193947052
100.00000171348088
100.00000190302168
100.00000299801687
100.00000765552088
100.00002682578808
100.00010454708425
100.00041608747105
100.0016516829764
100.00649491707094
100.02520968413725
100.09621197294754
100.35906354344029
101.29908398752393
104.48916500845559
114.39246290307963
139.909968974204
139.9099754477176
114.39247031467156
104.48916268819386
101.2990841275093
100.3590646070989
100.09621221971811
100.02520988526071
100.00649495695252
100.00165154572318
100.00041572610348
100.00010395306846
100.00002602429973
100.00000669727815
100.00000193947224
100.0000007887195
100.0000005691555
100.00000077379852
100.00000190301957
100.00000662809859
100.00002591061356
100.0001037875207
100.00041550803705
100.00165127989716
100.00649465998254
100.02520950608563
100.09621194010417
100.35906362711744
101.2990844791514
104.48916187801805
114.39245855783385
139.90996676610285
139.90996515986257
114.3924695493993
104.48915946325009
101.29908432504858
100.35906333496203
100.09621199946928
100.02520953690043
100.00649468311592
100.00165127599904
100.00041546243956
100.0001036991888
100.0000257805153
100.00000646322796
100.00000171347794
100.00000056915546
100.00000035575889
100.00000056915593
100.00000171347833
100.00000646323993
100.00002578053831
100.0001036991258
100.00041546314255
100.00165127479153
100.00649469087905
100.02520955019023
100.09621196820876
100.35906362321778
101.29908389934224
104.48916828507218
114.39245566838329
139.9099742805669
139.90997218531842
114.39244105295849
104.48916610449206
101.29908688579506
100.35906348125535
100.096212109527
100.02520949980571
100.00649466435176
100.00165127975072
100.00041550843918
100.00010378770567
100.000025910604
100.00000662811884
100.00000190301978
100.00000077379897
100.00000056915636
100.00000078872034
100.00000193946828
100.00000669728192
100.00002602425583
100.0001039529682
100.00041572608622
100.00165154419078
100.00649495700415
100.02520983893028
100.09621229092694
100.35906409202676
101.29908320054903
104.4891659620496
114.3924517974561
139.90996598037407
139.9099901256803
114.39244857740253
104.48916927721518
101.29908331645755
100.35906361247316
100.09621188986391
100.02520964769455
100.00649492114535
100.00165168029083
100.00041608775936
100.00010454700093
100.00002682574208
100.00000765551954
100.00000299801529
100.00000190302262
100.00000171348161
100.0000019394707
100.00000309361027
100.00000785406756
100.00002718353704
100.00010511473756
100.00041689022889
100.00165271135367
100.00649612329002
100.0252109998684
100.09621344389478
100.35906502622203
101.299086063526
104.48916533450382
114.39245714280115
139.90997311093653
139.90995314330783
114.39245851400813
104.48917295783976
101.29908263817917
100.35906404547798
100.09621233306186
100.0252105514882
100.0064963907338
100.0016538927733
100.00041907009987
100.00010821915059
100.000031010972
100.00001215431507
100.00000765552561
100.00000662810673
100.00000646322815
100.0000066972824
100.00000785406928
100.0000126156425
100.00003194579261
100.00010987749079
100.00042165332538
100.00165747355383
100.0065008951885
100.02521579676574
100.09621833150888
100.359069768435
101.29909094118321
104.48917223775611
114.3924659006385
139.90998736174106
139.90997200998882
114.39246967166628
104.48916276978112
101.29908436427162
100.35906489765813
100.09621547016101
100.02521578241264
100.00650446063364
100.00166519983483
100.00043340630344
100.0001248852955
100.00004912818991
100.00003101096851
100.00002682577374
100.00002591065302
100.00002578056937
100.0000260242754
100.0000271835794
100.0000319458324
100.00005127624274
100.00012920809934
100.00044098413957
100.00167680295982
100.00652021893576
100.02523510074273
100.09623750770962
100.35908927970422
101.29910871884435
104.48918975560834
114.39248244392611
139.9100167782545
139.9099679107308
114.39247225900591
104.4891611552646
101.29908985795812
100.35907430755667
100.096232905153
100.02524436068565
100.00654646986087
100.00172036020624
100.00049905396654
100.00019721315765
100.00012488526326
100.00010821930488
100.000104547114
100.00010378749396
100.000103699193
100.0001039531441
100.00010511475959
100.00010987752896
100.00012920806932
100.0002071399646
100.00051891572988
100.0017547369671
100.0065981591593
100.02531306467006
100.0963154402816
100.3591672972276
101.29918772358394
104.48927209084937
114.39258092720173
139.91016311087884
139.9099591297523
114.39243450842949
104.4891759767558
101.29911552852035
100.35913094085382
100.09633164793186
100.02539685990685
100.00675516540713
100.00197583954991
100.00078508251062
100.00049905395231
100.00043340615795
100.00041906920227
100.00041608741265
100.00041550822745
100.0004154627922
100.00041572625243
100.00041688988219
100.00042165301768
100.00044098367798
100.00051891566736
100.00083069140024
100.00206651259566
100.00690993548808
100.02562483219397
100.09662741283601
100.35947928545754
101.2995019899606
104.48959636324189
114.3929521883838
139.91077568425482
139.9100133596974
114.39249167086763
104.48926871522943
101.29929094769918
100.3594583342053
100.09686958444848
100.02617042550831
100.00773500911899
100.00309421942582
100.00197584654315
100.0017203617177
100.00166520276377
100.00165389816682
100.00165168650564
100.00165128545798
100.00165127859023
100.00165154929971
100.00165271435364
100.0016574779425
100.0016768088132
100.00175474065941
100.0020665166228
100.00330233890287
100.00814576753577
100.02686066575096
100.09786336303671
100.36071621490706
101.30074422528406
104.4908689534319
114.39438420918208
139.91310789796634
139.91005132869893
114.3927136598049
104.48975982607327
101.30032279573436
100.3612889017169
100.09966315704719
100.02986061503847
100.01204746633272
100.00773499948654
100.00675517618616
100.00654648301285
100.0065044785093
100.00649641359091
100.00649492503406
100.00649467429069
100.00649469763226
100.0064949745442
100.00649614002936
100.00650090398969
100.00652023430074
100.00659816626651
100.00690994460406
100.00814577557256
100.01298923837933
100.03170436995387
100.10270797060494
100.3655660381577
101.30562068268348
104.49588353516899
114.40011677659561
139.92237306075867
139.9105557528305
114.39405544845775
104.49281081650082
101.3062596306669
100.37104485162392
100.11324464334614
100.04620258457574
100.02986059616356
100.02617043031286
100.02539692611894
100.0252444129066
100.02521576865723
100.02521058598018
100.02520968465738
100.02520955139633
100.02520958799659
100.0252098675073
100.0252110364595
100.02521580306866
100.02523513355973
100.02531306560192
100.02562485454371
100.0268607268588
100.03170438205248
100.05042042168284
100.12142843877525
100.38430824568675
101.3244727598351
104.51529111355214
114.42232475590507
139.9581904160172
139.9137250489873
114.40230548492231
104.51087531211525
101.33884467930211
100.41954907031145
100.17380041244078
100.11324460960921
100.09966320424869
100.09686960218748
100.09633154601326
100.09623292882716
100.09621553013399
100.09621252237105
100.09621202036934
100.09621196503801
100.0962120232131
100.09621229769202
100.09621346889655
100.09621822509652
100.0962375552732
100.09631551082471
100.09662736124619
100.09786344928901
100.10270807559586
100.12142845619384
100.19245657267095
100.4554313265441
101.39605575818327
104.5891348963868
114.50716584866848
140.09436633814266
139.93360168116783
114.45249729518723
104.6130880547319
101.50512860807652
100.6373460724733
100.4195492436833
100.37104482111505
100.3612879712746
100.35945778463385
100.3591309155789
100.35907462833555
100.35906511748674
100.35906360721194
100.3590634319129
100.35906332065642
100.35906337615226
100.35906369028156
100.35906488786524
100.35906964468984
100.35908896853199
100.35916700033209
100.35947908943167
100.36071637339926
100.36556602510446
100.38430799576312
100.45543096833804
100.7188306815111
101.66140534073995
104.86360935555966
114.82416124888404
140.59969222009812
140.05525611893432
114.74467402234554
105.15062271512963
102.25648974583615
101.50513334806764
101.33884578772472
101.30626210383515
101.30032517706017
101.29929377213027
101.29912068208567
101.29909245467331
101.29908763068607
101.29908685183109
101.29908683032129
101.29908689043575
101.29908687626153
101.29908718471052
101.29908823780508
101.29909300371516
101.29911257697448
101.29919106865138
101.29950461879949
101.30074805850276
101.30562388718499
101.32447519646382
101.3960577897578
101.66140786360603
102.61236227275357
105.85120992858693
115.97211151704845
142.4079608491158
140.77300411142437
116.32886045876175
107.58568685234806
105.15061714210508
104.61309568936589
104.51088270044825
104.49282057403445
104.48976898282012
104.48926766012927
104.48918737284089
104.48917377756003
104.48917232233015
104.48917266941872
104.48917175749449
104.48917176705588
104.48917209592096
104.48917257746608
104.4891737485785
104.48917852832875
104.48919857859521
104.48927855089283
104.48960057223601
104.49087779776355
104.4958901365982
104.51529833009711
104.5891390294151
104.86361397522685
105.85121596007143
109.23524596033839
119.93454751380953
148.49694078798595
144.71238555801656
123.43567275076103
116.32885570776911
114.74467064199261
114.45252197849834
114.4023315318419
114.39404905581974
114.3927142343469
114.3925056177578
114.39247335550063
114.39246717058914
114.39246564328086
114.3924657175476
114.392466989653
114.39246623131433
114.39246612132796
114.39246553442801
114.3924671540216
114.39247377488101
114.39249668941311
114.3925875419482
114.39295234841006
114.39440626547298
114.40012525512881
114.42233477248556
114.50717184404655
114.82416344557906
115.97212894476833
119.93455146472901
132.4861024321081
166.63680180984596
161.39393088830468
144.71237280846748
140.7730000458146
140.0552575160182
139.93359585027355
139.91373090214853
139.9105604653974
139.91006546952298
139.9099859158792
139.90997091486145
139.90997126025562
139.90997246105385
139.9099715324361
139.90997005326113
139.90997115782488
139.9099711006348
139.9099730359726
139.90997573515503
139.9099835939612
139.9100188833037
139.9101678195466
139.9107638147863
139.91312176822203
139.92237519644482
139.9581891075202
140.09436711972546
140.5996844182407
142.4079682558653
148.49693466004697
166.63679044671622
207.23308221956614
