# vtk DataFile Version 2.0
Unstructured Grid Example
ASCII
DATASET UNSTRUCTURED_GRID

POINTS 961 float
0.150000006 -0.00839745998 0
0.146666661 -0.00839745998 0
0.143333331 -0.00839745998 0
0.140000001 -0.00839745998 0
0.13666667 -0.00839745998 0
0.13333334 -0.00839745998 0
0.129999995 -0.00839745998 0
0.126666665 -0.00839745998 0
0.123333335 -0.00839745998 0
0.119999997 -0.00839745998 0
0.116666667 -0.00839745998 0
0.113333337 -0.00839745998 0
0.109999999 -0.00839745998 0
0.106666669 -0.00839745998 0
0.103333332 -0.00839745998 0
0.100000001 -0.00839745998 0
0.0966666639 -0.00839745998 0
0.0933333337 -0.00839745998 0
0.0900000036 -0.00839745998 0
0.086666666 -0.00839745998 0
0.0833333358 -0.00839745998 0
0.0799999982 -0.00839745998 0
0.0766666681 -0.00839745998 0
0.0733333305 -0.00839745998 0
0.0700000003 -0.00839745998 0
0.0666666701 -0.00839745998 0
0.0633333325 -0.00839745998 0
0.0599999987 -0.00839745998 0
0.0566666685 -0.00839745998 0
0.0533333346 -0.00839745998 0
0.0500000007 -0.00839745998 0
0.148333326 -0.0112842107 0
0.144999996 -0.0112842107 0
0.141666666 -0.0112842107 0
0.138333336 -0.0112842107 0
0.135000005 -0.0112842107 0
0.13166666 -0.0112842107 0
0.12833333 -0.0112842107 0
0.125 -0.0112842107 0
0.12166667 -0.0112842107 0
0.118333332 -0.0112842107 0
0.115000002 -0.0112842107 0
0.111666664 -0.0112842107 0
0.108333334 -0.0112842107 0
0.104999997 -0.0112842107 0
0.101666667 -0.0112842107 0
0.0983333364 -0.0112842107 0
0.0949999988 -0.0112842107 0
0.0916666687 -0.0112842107 0
0.088333331 -0.0112842107 0
0.0850000009 -0.0112842107 0
0.0816666633 -0.0112842107 0
0.0783333331 -0.0112842107 0
0.075000003 -0.0112842107 0
0.0716666654 -0.0112842107 0
0.0683333352 -0.0112842107 0
0.0649999976 -0.0112842107 0
0.0616666675 -0.0112842107 0
0.0583333336 -0.0112842107 0
0.0549999997 -0.0112842107 0
0.0516666658 -0.0112842107 0
0.0483333319 -0.0112842107 0
0.146666661 -0.0141709624 0
0.143333331 -0.0141709624 0
0.140000001 -0.0141709624 0
0.13666667 -0.0141709624 0
0.13333334 -0.0141709624 0
0.129999995 -0.0141709624 0
0.126666665 -0.0141709624 0
0.123333335 -0.0141709624 0
0.119999997 -0.0141709624 0
0.116666667 -0.0141709624 0
0.113333337 -0.0141709624 0
0.109999999 -0.0141709624 0
0.106666669 -0.0141709624 0
0.103333332 -0.0141709624 0
0.100000001 -0.0141709624 0
0.0966666639 -0.0141709624 0
0.0933333337 -0.0141709624 0
0.0900000036 -0.0141709624 0
0.086666666 -0.0141709624 0
0.0833333358 -0.0141709624 0
0.0799999982 -0.0141709624 0
0.0766666681 -0.0141709624 0
0.0733333305 -0.0141709624 0
0.0700000003 -0.0141709624 0
0.0666666701 -0.0141709624 0
0.0633333325 -0.0141709624 0
0.0599999987 -0.0141709624 0
0.0566666685 -0.0141709624 0
0.0533333346 -0.0141709624 0
0.0500000007 -0.0141709624 0
0.0466666669 -0.0141709624 0
0.144999996 -0.0170577131 0
0.141666666 -0.0170577131 0
0.138333336 -0.0170577131 0
0.135000005 -0.0170577131 0
0.13166666 -0.0170577131 0
0.12833333 -0.0170577131 0
0.125 -0.0170577131 0
0.12166667 -0.0170577131 0
0.118333332 -0.0170577131 0
0.115000002 -0.0170577131 0
0.111666664 -0.0170577131 0
0.108333334 -0.0170577131 0
0.104999997 -0.0170577131 0
0.101666667 -0.0170577131 0
0.0983333364 -0.0170577131 0
0.0949999988 -0.0170577131 0
0.0916666687 -0.0170577131 0
0.088333331 -0.0170577131 0
0.0850000009 -0.0170577131 0
0.0816666633 -0.0170577131 0
0.0783333331 -0.0170577131 0
0.075000003 -0.0170577131 0
0.0716666654 -0.0170577131 0
0.0683333352 -0.0170577131 0
0.0649999976 -0.0170577131 0
0.0616666675 -0.0170577131 0
0.0583333336 -0.0170577131 0
0.0549999997 -0.0170577131 0
0.0516666658 -0.0170577131 0
0.0483333319 -0.0170577131 0
0.0450000018 -0.0170577131 0
0.143333331 -0.0199444648 0
0.140000001 -0.0199444648 0
0.13666667 -0.0199444648 0
0.13333334 -0.0199444648 0
0.129999995 -0.0199444648 0
0.126666665 -0.0199444648 0
0.123333335 -0.0199444648 0
0.119999997 -0.0199444648 0
0.116666667 -0.0199444648 0
0.113333337 -0.0199444648 0
0.109999999 -0.0199444648 0
0.106666669 -0.0199444648 0
0.103333332 -0.0199444648 0
0.100000001 -0.0199444648 0
0.0966666639 -0.0199444648 0
0.0933333337 -0.0199444648 0
0.0900000036 -0.0199444648 0
0.086666666 -0.0199444648 0
0.0833333358 -0.0199444648 0
0.0799999982 -0.0199444648 0
0.0766666681 -0.0199444648 0
0.0733333305 -0.0199444648 0
0.0700000003 -0.0199444648 0
0.0666666701 -0.0199444648 0
0.0633333325 -0.0199444648 0
0.0599999987 -0.0199444648 0
0.0566666685 -0.0199444648 0
0.0533333346 -0.0199444648 0
0.0500000007 -0.0199444648 0
0.0466666669 -0.0199444648 0
0.043333333 -0.0199444648 0
0.141666666 -0.0228312165 0
0.138333336 -0.0228312165 0
0.135000005 -0.0228312165 0
0.13166666 -0.0228312165 0
0.12833333 -0.0228312165 0
0.125 -0.0228312165 0
0.12166667 -0.0228312165 0
0.118333332 -0.0228312165 0
0.115000002 -0.0228312165 0
0.111666664 -0.0228312165 0
0.108333334 -0.0228312165 0
0.104999997 -0.0228312165 0
0.101666667 -0.0228312165 0
0.0983333364 -0.0228312165 0
0.0949999988 -0.0228312165 0
0.0916666687 -0.0228312165 0
0.088333331 -0.0228312165 0
0.0850000009 -0.0228312165 0
0.0816666633 -0.0228312165 0
0.0783333331 -0.0228312165 0
0.075000003 -0.0228312165 0
0.0716666654 -0.0228312165 0
0.0683333352 -0.0228312165 0
0.0649999976 -0.0228312165 0
0.0616666675 -0.0228312165 0
0.0583333336 -0.0228312165 0
0.0549999997 -0.0228312165 0
0.0516666658 -0.0228312165 0
0.0483333319 -0.0228312165 0
0.0450000018 -0.0228312165 0
0.0416666679 -0.0228312165 0
0.140000001 -0.0257179681 0
0.13666667 -0.0257179681 0
0.13333334 -0.0257179681 0
0.129999995 -0.0257179681 0
0.126666665 -0.0257179681 0
0.123333335 -0.0257179681 0
0.119999997 -0.0257179681 0
0.116666667 -0.0257179681 0
0.113333337 -0.0257179681 0
0.109999999 -0.0257179681 0
0.106666669 -0.0257179681 0
0.103333332 -0.0257179681 0
0.100000001 -0.0257179681 0
0.0966666639 -0.0257179681 0
0.0933333337 -0.0257179681 0
0.0900000036 -0.0257179681 0
0.086666666 -0.0257179681 0
0.0833333358 -0.0257179681 0
0.0799999982 -0.0257179681 0
0.0766666681 -0.0257179681 0
0.0733333305 -0.0257179681 0
0.0700000003 -0.0257179681 0
0.0666666701 -0.0257179681 0
0.0633333325 -0.0257179681 0
0.0599999987 -0.0257179681 0
0.0566666685 -0.0257179681 0
0.0533333346 -0.0257179681 0
0.0500000007 -0.0257179681 0
0.0466666669 -0.0257179681 0
0.043333333 -0.0257179681 0
0.0399999991 -0.0257179681 0
0.138333336 -0.0286047198 0
0.135000005 -0.0286047198 0
0.13166666 -0.0286047198 0
0.12833333 -0.0286047198 0
0.125 -0.0286047198 0
0.12166667 -0.0286047198 0
0.118333332 -0.0286047198 0
0.115000002 -0.0286047198 0
0.111666664 -0.0286047198 0
0.108333334 -0.0286047198 0
0.104999997 -0.0286047198 0
0.101666667 -0.0286047198 0
0.0983333364 -0.0286047198 0
0.0949999988 -0.0286047198 0
0.0916666687 -0.0286047198 0
0.088333331 -0.0286047198 0
0.0850000009 -0.0286047198 0
0.0816666633 -0.0286047198 0
0.0783333331 -0.0286047198 0
0.075000003 -0.0286047198 0
0.0716666654 -0.0286047198 0
0.0683333352 -0.0286047198 0
0.0649999976 -0.0286047198 0
0.0616666675 -0.0286047198 0
0.0583333336 -0.0286047198 0
0.0549999997 -0.0286047198 0
0.0516666658 -0.0286047198 0
0.0483333319 -0.0286047198 0
0.0450000018 -0.0286047198 0
0.0416666679 -0.0286047198 0
0.038333334 -0.0286047198 0
0.13666667 -0.0314914696 0
0.13333334 -0.0314914696 0
0.129999995 -0.0314914696 0
0.126666665 -0.0314914696 0
0.123333335 -0.0314914696 0
0.119999997 -0.0314914696 0
0.116666667 -0.0314914696 0
0.113333337 -0.0314914696 0
0.109999999 -0.0314914696 0
0.106666669 -0.0314914696 0
0.103333332 -0.0314914696 0
0.100000001 -0.0314914696 0
0.0966666639 -0.0314914696 0
0.0933333337 -0.0314914696 0
0.0900000036 -0.0314914696 0
0.086666666 -0.0314914696 0
0.0833333358 -0.0314914696 0
0.0799999982 -0.0314914696 0
0.0766666681 -0.0314914696 0
0.0733333305 -0.0314914696 0
0.0700000003 -0.0314914696 0
0.0666666701 -0.0314914696 0
0.0633333325 -0.0314914696 0
0.0599999987 -0.0314914696 0
0.0566666685 -0.0314914696 0
0.0533333346 -0.0314914696 0
0.0500000007 -0.0314914696 0
0.0466666669 -0.0314914696 0
0.043333333 -0.0314914696 0
0.0399999991 -0.0314914696 0
0.0366666652 -0.0314914696 0
0.135000005 -0.0343782231 0
0.13166666 -0.0343782231 0
0.12833333 -0.0343782231 0
0.125 -0.0343782231 0
0.12166667 -0.0343782231 0
0.118333332 -0.0343782231 0
0.115000002 -0.0343782231 0
0.111666664 -0.0343782231 0
0.108333334 -0.0343782231 0
0.104999997 -0.0343782231 0
0.101666667 -0.0343782231 0
0.0983333364 -0.0343782231 0
0.0949999988 -0.0343782231 0
0.0916666687 -0.0343782231 0
0.088333331 -0.0343782231 0
0.0850000009 -0.0343782231 0
0.0816666633 -0.0343782231 0
0.0783333331 -0.0343782231 0
0.075000003 -0.0343782231 0
0.0716666654 -0.0343782231 0
0.0683333352 -0.0343782231 0
0.0649999976 -0.0343782231 0
0.0616666675 -0.0343782231 0
0.0583333336 -0.0343782231 0
0.0549999997 -0.0343782231 0
0.0516666658 -0.0343782231 0
0.0483333319 -0.0343782231 0
0.0450000018 -0.0343782231 0
0.0416666679 -0.0343782231 0
0.038333334 -0.0343782231 0
0.0350000001 -0.0343782231 0
0.13333334 -0.0372649729 0
0.129999995 -0.0372649729 0
0.126666665 -0.0372649729 0
0.123333335 -0.0372649729 0
0.119999997 -0.0372649729 0
0.116666667 -0.0372649729 0
0.113333337 -0.0372649729 0
0.109999999 -0.0372649729 0
0.106666669 -0.0372649729 0
0.103333332 -0.0372649729 0
0.100000001 -0.0372649729 0
0.0966666639 -0.0372649729 0
0.0933333337 -0.0372649729 0
0.0900000036 -0.0372649729 0
0.086666666 -0.0372649729 0
0.0833333358 -0.0372649729 0
0.0799999982 -0.0372649729 0
0.0766666681 -0.0372649729 0
0.0733333305 -0.0372649729 0
0.0700000003 -0.0372649729 0
0.0666666701 -0.0372649729 0
0.0633333325 -0.0372649729 0
0.0599999987 -0.0372649729 0
0.0566666685 -0.0372649729 0
0.0533333346 -0.0372649729 0
0.0500000007 -0.0372649729 0
0.0466666669 -0.0372649729 0
0.043333333 -0.0372649729 0
0.0399999991 -0.0372649729 0
0.0366666652 -0.0372649729 0
0.0333333351 -0.0372649729 0
0.13166666 -0.0401517227 0
0.12833333 -0.0401517227 0
0.125 -0.0401517227 0
0.12166667 -0.0401517227 0
0.118333332 -0.0401517227 0
0.115000002 -0.0401517227 0
0.111666664 -0.0401517227 0
[...]
POINT_DATA 961
SCALARS Temp float 1
LOOKUP_TABLE default
438.8000981246671
390.8781471433909
349.3723129355329
315.50538632881745
288.9615678201709
268.9521228922496
254.43589826718355
244.29516767816577
237.46850587158207
233.03588666086014
230.25699014329655
228.57299955984166
227.58541039178994
227.02430260347222
226.71532407018788
226.55092440385695
226.46810286862382
226.43302115497426
226.43198078171665
226.46822288577044
226.564568795361
226.77243967777545
227.18812650549842
227.97656203979213
229.400898008198
231.8530065517454
235.87603604036283
242.16784309209018
251.5569655710619
264.95784739346874
283.61427323643295
392.2167032754678
345.0475682359432
305.92153853466573
274.5812035277064
250.42124796226085
232.49079031406652
219.67475908166432
210.8473175886844
204.9837939136045
201.22437821656402
198.89540823703203
197.4997550905356
196.68984153461037
196.2343116309742
195.98615003510562
195.85623861357877
195.79377675303445
195.77351214678762
195.78919729259894
195.85302133592813
196.00125675368497
196.3068911975701
196.89988663613212
197.99446769445774
199.92026481596875
203.15033441593
208.31546170997458
216.1932855586859
227.6645981764905
243.6471930293888
264.56340534488226
351.9355887096533
307.12102538852685
270.43916599207216
241.45485623904034
219.36910515560217
203.14363859153713
191.64863472945117
183.79151593596515
178.6064881437261
175.3002991852117
173.26136862231797
172.04403350388964
171.33974391032322
170.94473683584098
170.73047529869945
170.61982524412298
170.56997042993092
170.56186454330816
170.59585812946023
170.69350121664596
170.9059696866924
171.32989362280298
172.13072379030612
173.57199828264262
176.04569183748296
180.0948865369595
186.41697747588066
195.83518160426786
209.22717577562668
227.35475530603514
250.89852567601045
319.04895068807207
276.7507471010733
242.43169178750503
215.52514307886327
195.15208614638783
180.25715155582347
169.74107736881916
162.5690412106833
157.84157461306697
154.82791832734563
152.96849966209533
151.8572036506454
151.21340112579495
150.85195782332363
150.65624479830214
150.5567307736545
150.5159570068692
150.51981455232706
150.57503272696786
150.71305193664728
151.00088487265774
151.55947805688027
152.5890564325306
154.39866498040533
157.43362668862576
162.2908962988747
169.71012922055283
180.52845851305068
195.58920725726932
215.66120305529296
241.33378353263748
293.19720904281587
253.3060224499354
221.08947798508305
195.91274497644207
176.88408432345253
162.97940426039239
153.15687821887764
146.44812091646287
142.01668698089352
139.184429276217
137.4319017147859
136.38135758099824
135.77102386270025
135.42771954805247
135.24222206133743
135.14982664347357
135.11691503569665
135.13370624710274
135.21329134535333
135.39726521573556
135.76852237157254
136.4713402655122
137.7375116090759
139.9146824543056
143.48956420973886
149.09557635764494
157.49346226990835
169.51675870035834
185.99131122280016
207.63299041224795
234.93312647151663
273.61158024069664
235.8577131870373
205.39719289319586
181.5845765314169
163.56123943002592
150.36100306336934
141.00919878628474
134.60113322514553
130.35378411429423
127.62979331050671
125.93862328515895
124.92169468249018
124.32933939604847
123.99573110822928
123.81617213274787
123.72912051177707
123.70396571153186
123.73494537925085
123.8414168701949
124.07488863186485
124.53317485112645
125.38137785223552
126.8777785244355
129.40000817837463
133.46367155051217
139.7234173898188
148.94672319176132
161.95688918105213
179.54690820287894
202.37311355148717
230.84872783809297
259.3069755024789
223.33770582289173
194.26475791686767
171.47538010209612
154.16970985617252
141.44934379968836
132.404133236427
126.18372295349005
122.04660885778003
119.38494179923129
117.72778827973913
116.72888670552568
116.14598742338698
115.81765572204246
115.6419726198611
115.55960536908685
115.54248530101295
115.58860970934026
115.7232731017247
116.00709525017523
116.5509721729442
117.53725715172239
119.2447200690882
122.07220952567275
126.55323508838447
133.35217914613722
143.23413693025537
157.0043433213939
175.4202016323467
199.08812996450393
228.3661826788722
249.23292571103593
214.67403862445298
186.64312673698254
164.5860490079226
147.770661342524
135.36388537212923
126.51066743544324
120.40302265230893
116.3295772221148
113.70258306039491
112.06369242374407
111.07421306204252
110.4962680463373
110.17100741429309
109.99827116702437
109.92039199481168
109.91152754362287
109.97310704131917
110.13575494983739
110.46793564949337
111.09123103548313
112.20123048702725
114.09124751479243
117.17363830217855
121.99127987454048
129.2104861110975
139.58805504682826
153.90925627659962
172.9010009641853
197.13342452722847
226.92939765074317
242.3893263432519
208.88997107951818
181.60550203204687
160.0494945577534
143.55525625425096
131.34538265139662
122.60795357239128
116.56568425543007
112.52778769879328
109.91946906845644
108.29011801391626
107.3054875301877
106.73021297649011
106.40697146875858
106.23677760464426
106.16329567619697
106.16262089374332
106.23918230404561
106.42810638515182
106.80416797926436
107.49706011254705
108.71174229386106
110.75091170548039
114.03445017439117
119.1086544778815
126.63711791994709
137.36641594767036
152.06430970194663
171.43517188888652
196.0254312351212
226.13771617551706
237.9024061532949
205.16193970508985
178.38881453123443
157.16146453014434
140.86930128555633
128.77846776027417
120.10836484016806
114.10271491714013
110.0840604215321
107.48552310912292
105.8610685598639
104.87895873028222
104.3052517390946
103.9835464888637
103.8156938321634
103.74644554784693
103.7535317967227
103.84386336007645
104.056131147372
104.46984392545602
105.22040082337014
106.51883631134741
108.67323605298961
112.10684884877075
117.3658780734608
125.10929138843687
136.07429780474806
151.01545030290882
170.6222389126234
195.42717737626697
225.72251771448924
235.061158124136
202.84061882478724
176.40302815536555
155.38272490243
139.212903686351
127.1915132700181
118.55926753274743
112.5735252145567
108.56501382348968
105.97152904099937
104.34961053899106
103.36890714291891
102.7962791831534
102.47589989443749
102.31024323076369
102.24493626873324
102.25902906958808
102.36136478663452
102.59327422161734
103.03756738600305
103.83334242688237
105.19518897321818
107.43383849854366
110.97337560265281
116.35830174784341
124.24296158408053
135.3573295746561
150.44715437870983
170.19300819511372
195.1201020729046
225.5161226407688
233.32188449528488
201.44286278956312
175.21679620494518
154.32203609713002
138.22370523575452
126.24146911284569
117.6298896147547
111.65476445083426
107.65157274291192
105.06078726328754
103.44032533609725
102.46058626324772
101.88888088469444
101.56975877636567
101.4061622051561
101.34439842584922
101.36452747585078
101.4768051820494
101.72438824637867
102.19222130908462
103.02159096954068
104.4289111879399
106.72588498661429
110.3362086242973
115.80231405722965
123.77484203218087
134.9788429037824
150.15477534963125
169.978452656823
194.97174450648816
225.42097524659889
232.29195361239374
200.62827265123877
174.5305938979911
153.70926497370547
137.6514448034393
125.69074885945784
117.09033820845141
111.12095422960928
107.12077816015123
104.53170876859961
102.91238451613674
101.9335939633656
101.3628893416664
101.0450720980789
100.88342765399281
100.82477206656904
100.84989554566323
100.970025544127
101.22949696008409
101.71452783777514
102.56756650858712
104.00580793613884
106.34105023513206
109.99619532768233
115.51190892940248
123.53626340658589
134.79134427716562
150.01471945455924
169.88000676254305
194.90791919971232
225.38505627611363
231.70134967316997
200.16853829224627
174.1461790927918
153.36663154727609
137.33130690542842
125.38249317728443
116.78847470293384
110.82268255004958
106.82480047871161
104.23740815218531
102.61948870624987
101.64200197281684
101.07262279690816
100.75631479462245
100.59660437328756
100.54067556087698
100.56982331782262
100.69591028566394
100.96398703298435
101.46097169453392
102.32985099143136
103.78804722528663
106.14712379765363
109.82920865232282
115.37371314256744
123.42712882217245
134.70994809507056
149.9584112586095
169.84540256274263
194.89178219105133
225.38524334697246
231.37353500373393
199.9177361004945
173.9384377048866
153.1825339549331
137.1601001617492
125.2186207457005
116.62922371336509
110.66679215706391
106.6717033975317
104.08681282303922
102.47120492131128
101.49585229633949
100.92847118665026
100.61411976885184
100.45649922770906
100.40306053925559
100.43544996819008
100.56594067880413
100.84000554503949
101.3449240074246
102.22390084928445
103.69434331340625
106.06752752094333
109.7650129370443
115.32543786707366
123.39446956566054
134.69186826685632
149.9535032550621
169.852416420785
194.9105359598404
225.41773582683135
231.198332921147
199.78707491987436
173.83270204692013
153.09107902852708
137.0774876437221
125.1424098575828
116.55832223078323
110.60082744375518
106.61044519379055
104.03001203070153
102.41850961807792
101.4468143964804
100.88262133796783
100.57104365715304
100.41593638604316
100.3649756177068
100.40008580448934
100.53383499920295
100.81196616680239
101.32195402989053
102.20708637805211
103.68470490179968
106.06586182259564
109.77177532672071
115.34068474556314
123.417937427957
134.72317120505193
149.99254031575
169.90007906609
194.96969767573253
225.49518021531134
231.11091807945348
199.72623853207025
173.78821356457547
153.05788839423812
137.05358220820824
125.1272577744804
116.55193729198865
110.603258253397
106.62148948372463
104.04914887927671
102.44489176912131
101.47940292919355
100.92032279984564
100.61284803661314
100.46103077835613
100.41281394388751
100.45041531638381
100.58668046623099
100.86757899647083
101.38073603052936
102.2694926946851
103.75115375132542
106.13665653892686
109.84707257341084
115.42054634854473
123.50246414968554
134.8128469346898
150.08880051665707
170.00639374146948
195.09319851576015
225.6494393540548
231.07686328386873
199.711357391733
173.788370592338
153.07202022414245
137.08226435193063
125.17135804655433
116.61220926296888
110.67978276771572
106.71360880905642
104.15550019867877
102.56358118645566
101.60827899228877
101.05722102129836
100.75582346197842
100.60849091525158
100.56358281045954
100.6037246144011
100.74211286601798
101.02498306725279
101.54013609877921
102.43100319959763
103.91491163006924
106.3027967915809
110.01575588437487
115.59209910182007
123.67765541077489
134.99343479861562
150.2785307454272
170.21258401057696
195.32959863087456
225.94032199972366
231.0836452615419
199.73880729227247
173.8371644388868
153.14454166117832
137.1812636563726
125.2989951440044
116.76945898611781
110.86612411335676
106.92708553004387
104.39295027159433
102.82113077760977
101.88183474706332
101.34290576399927
101.05028739037644
100.90906677403673
100.86830937349454
100.91127161317266
101.05165687725847
101.33607062192974
101.85255815537255
102.74470536509271
104.22994575617072
106.61933631694575
110.33421168718105
115.91336738310964
124.00364901636839
135.32801509784295
150.62919839760104
170.59313237874363
195.7643573739862
226.47031795571573
231.13829433763868
199.8255867265695
173.9616855065445
153.31296975249253
137.39857804355321
125.5682772756914
117.09103124685716
111.23754315261574
107.34350295777854
104.84783862388736
103.30721114106137
102.39190176337728
101.87050682018256
101.59009084591908
101.45698821180221
101.421431861943
101.46765019286363
101.61008368762828
101.89585624142155
102.41336065369997
103.30642335434169
104.79269500806447
107.18352763059386
110.90079844202263
116.48434136288645
124.58297396584788
135.92327538355735
151.25423585102115
171.2723712648289
196.53889153756154
227.4063560128088
231.27026253908602
200.01566932451368
174.22156965256931
153.65304941252737
137.82609832970476
126.08604677541064
117.69687407965478
111.92470611669492
108.1016705729432
105.66471913704909
104.17010151156737
103.28898976932439
102.79173105236418
102.52751320078471
102.40477375675863
102.37556451689576
102.42553873922475
102.57016554663007
102.85726816904842
103.37571293069368
104.26968932427641
105.75723747005644
108.15031013147856
111.87185722050417
117.46371410024412
125.57831094067521
136.94856724276744
152.33399649833976
172.44785439162152
197.87653024031476
229.00820096665612
231.54163125841671
200.39335564824069
174.72515139445392
154.29757504843838
138.61996701325396
127.02925458418198
118.78116542364164
113.13497202346761
109.4183203808225
107.06644131488746
105.63626522186466
104.8014533671404
104.33576516805397
104.09200639935155
103.98189132740742
103.96012449741745
104.01432564626191
104.16132213138468
104.44984173093097
104.96938116822915
105.86468060804549
107.3544728078549
109.75185457843418
113.48182276157438
119.08987813154239
127.23482399308209
138.66013115914924
154.14214970850847
174.41936591546153
200.11395361999135
231.66137437629484
232.0636050005691
201.10388080561663
175.65292960146482
155.4616607021203
140.02652311160878
128.6704961656227
120.63688132429705
115.17583779994007
111.61038099110381
109.37538999101264
108.0308230915154
107.25545885028042
106.82894453104898
106.60971721369332
106.51422756415663
106.50079628563344
106.55959327064726
106.70914681223682
106.99931456877535
107.52044132664243
108.41813710813959
109.91238893861207
112.3184203196923
116.06497209907471
121.70398071669462
129.9049371350015
141.42818404365698
157.0754227848957
177.62102887708622
203.7346180562234
235.9094863587426
233.01932235530575
202.37912323114446
177.28540164354786
157.47066874860133
142.4092830965512
131.40301430888766
123.67832003839544
118.47511800566971
115.1132794167676
113.03047823356097
111.79366754228208
111.09062159970316
110.71016887223216
110.51882748618621
110.43942505008813
110.43489776535417
110.49853264351638
110.65089245039616
110.94322925107758
111.46707748132816
112.36949130034373
113.87272340793083
116.29585907752148
120.07420917867627
125.77053331054451
134.07132757480466
145.76244366321095
161.68153721517265
182.65050207625328
209.39685418199855
242.47740844898593
234.69156741373166
204.56658822982084
180.03112849567293
160.78541289945704
146.26983038302365
135.75704491928926
128.4535770956485
123.59036248377514
120.48813785797105
118.59292591905044
117.484472270205
116.86468194594619
116.53549723497763
116.3741861380045
116.31158717913245
116.31616056528806
116.38480578877862
116.54044836031254
116.83609767314927
117.36506628900162
118.27688970706178
119.79785687598087
122.25380700072579
126.09107099786644
131.8896743874961
140.36178855977627
152.32935483224384
168.6774984174663
190.2857862005754
217.94507732794185
252.2720088297881
237.48817253245818
208.15283588334748
184.445033485183
166.0138281326176
152.252195416512
142.39766800733224
135.63754313432642
131.19858327926138
128.40949044440163
126.73290759563893
125.76899674754813
125.23982959765576
124.96462311364651
124.83394673532692
124.78805082854102
124.80162683092074
124.87558151512735
125.03557582957923
125.33696351548174
125.87588206151678
126.8061577740716
128.3610751549723
130.8777761481784
134.82017557470832
140.79429131848985
149.54863544996374
161.95257931947225
178.948498603895
201.47839086823438
230.39192079179597
266.3478393000332
241.9589621673278
213.77290963923204
191.22741334714132
173.89803313414083
161.1196014420534
152.09495081719214
145.99810693609896
142.05966805617763
139.62736837457393
138.1913785364082
137.38116821477084
136.9451914193891
136.72373547631224
136.62270905302225
136.5927274346479
136.6151581374563
136.6952567570205
136.86196388593493
137.17400599889197
137.73217320618946
138.69759733206962
140.3152085264245
142.94013681090482
147.06277511811504
153.32587510832565
162.52556982635977
175.58809849148417
193.51696482170522
217.310675299379
247.8582809701669
285.8263813366173
248.79334835093596
222.1947518537235
201.19206163720332
185.26628598949006
173.69684477483744
165.66357098703872
160.33219324423266
156.95102625244655
154.90211962736836
153.71582208428708
153.0598225435296
152.71434933663332
152.54355292238512
152.46987304385613
152.4546960350683
152.48627631307727
152.57464168146925
152.75296297630837
153.08514364103675
153.6796733411256
154.70972311419217
156.43868680548374
159.24874460613762
163.66763838345713
170.38624866424558
180.25759033817135
194.26805879571924
213.47488385737233
238.9107143944994
271.4657624054529
311.76592432803164
258.79323487937967
234.2742126469238
215.19382044480773
200.93991320848104
190.78758452178798
183.87446660528002
179.3756373612009
176.5786746457471
174.91768705487166
173.97554331900028
173.46546835372564
173.20304445597577
173.07758296606443
173.02823596309278
173.0270695066211
173.06938016389694
173.17073144082224
173.37023237925303
173.73999159669157
174.4009795926158
175.54533193250887
177.4641150868367
180.5776256801877
185.46249454815435
192.86704881153648
203.70431954672037
219.01280485762118
239.879298419307
267.3266228654998
302.1856112097511
344.98666544775335
272.83046069941577
250.89306564780222
233.96151878377012
221.6530229568034
213.07226996271513
207.34902556970852
203.70078396008515
201.47943486047433
200.18770019416084
199.47042302257026
199.09062426522007
198.90035923332408
198.81374067495716
198.7859238214857
198.79929014207977
198.85658467543198
198.9804021351363
199.21872284391063
199.6566329647329
200.43456603697473
201.772942092676
204.00171732050745
207.59099326704114
213.17578741640162
221.56508765409598
233.7239751534297
250.71906293626733
273.6229814300247
303.3821048576048
340.6579266320109
385.84591676185676
292.1005041670746
272.4383727670942
258.1327289599869
247.94904557458256
240.99646113587735
236.45592435206953
233.62252809437337
231.9338349989412
230.97270364143563
230.45056212440625
230.18067684981074
230.05014861439986
229.99610341476048
229.98846155533536
230.01970893080266
230.10114264300037
230.2651107872839
230.57314697896967
231.13028957157022
232.10580473985328
233.75969555219228
236.4726185490754
240.77408421699607
247.36083024511655
257.09473424906474
270.9694825648006
290.0382290374632
315.30063216929926
347.5528819261547
387.1915173406227
433.13989970562113
