# vtk DataFile Version 2.0
Unstructured Grid Example
ASCII
DATASET UNSTRUCTURED_GRID

POINTS 961 float
0.150000006 -0.00839745998 0
0.146666661 -0.00839745998 0
0.143333331 -0.00839745998 0
0.140000001 -0.00839745998 0
0.13666667 -0.00839745998 0
0.13333334 -0.00839745998 0
0.129999995 -0.00839745998 0
0.126666665 -0.00839745998 0
0.123333335 -0.00839745998 0
0.119999997 -0.00839745998 0
0.116666667 -0.00839745998 0
0.113333337 -0.00839745998 0
0.109999999 -0.00839745998 0
0.106666669 -0.00839745998 0
0.103333332 -0.00839745998 0
0.100000001 -0.00839745998 0
0.0966666639 -0.00839745998 0
0.0933333337 -0.00839745998 0
0.0900000036 -0.00839745998 0
0.086666666 -0.00839745998 0
0.0833333358 -0.00839745998 0
0.0799999982 -0.00839745998 0
0.0766666681 -0.00839745998 0
0.0733333305 -0.00839745998 0
0.0700000003 -0.00839745998 0
0.0666666701 -0.00839745998 0
0.0633333325 -0.00839745998 0
0.0599999987 -0.00839745998 0
0.0566666685 -0.00839745998 0
0.0533333346 -0.00839745998 0
0.0500000007 -0.00839745998 0
0.148333326 -0.0112842107 0
0.144999996 -0.0112842107 0
0.141666666 -0.0112842107 0
0.138333336 -0.0112842107 0
0.135000005 -0.0112842107 0
0.13166666 -0.0112842107 0
0.12833333 -0.0112842107 0
0.125 -0.0112842107 0
0.12166667 -0.0112842107 0
0.118333332 -0.0112842107 0
0.115000002 -0.0112842107 0
0.111666664 -0.0112842107 0
0.108333334 -0.0112842107 0
0.104999997 -0.0112842107 0
0.101666667 -0.0112842107 0
0.0983333364 -0.0112842107 0
0.0949999988 -0.0112842107 0
0.0916666687 -0.0112842107 0
0.088333331 -0.0112842107 0
0.0850000009 -0.0112842107 0
0.0816666633 -0.0112842107 0
0.0783333331 -0.0112842107 0
0.075000003 -0.0112842107 0
0.0716666654 -0.0112842107 0
0.0683333352 -0.0112842107 0
0.0649999976 -0.0112842107 0
0.0616666675 -0.0112842107 0
0.0583333336 -0.0112842107 0
0.0549999997 -0.0112842107 0
0.0516666658 -0.0112842107 0
0.0483333319 -0.0112842107 0
0.146666661 -0.0141709624 0
0.143333331 -0.0141709624 0
0.140000001 -0.0141709624 0
0.13666667 -0.0141709624 0
0.13333334 -0.0141709624 0
0.129999995 -0.0141709624 0
0.126666665 -0.0141709624 0
0.123333335 -0.0141709624 0
0.119999997 -0.0141709624 0
0.116666667 -0.0141709624 0
0.113333337 -0.0141709624 0
0.109999999 -0.0141709624 0
0.106666669 -0.0141709624 0
0.103333332 -0.0141709624 0
0.100000001 -0.0141709624 0
0.0966666639 -0.0141709624 0
0.0933333337 -0.0141709624 0
0.0900000036 -0.0141709624 0
0.086666666 -0.0141709624 0
0.0833333358 -0.0141709624 0
0.0799999982 -0.0141709624 0
0.0766666681 -0.0141709624 0
0.0733333305 -0.0141709624 0
0.0700000003 -0.0141709624 0
0.0666666701 -0.0141709624 0
0.0633333325 -0.0141709624 0
0.0599999987 -0.0141709624 0
0.0566666685 -0.0141709624 0
0.0533333346 -0.0141709624 0
0.0500000007 -0.0141709624 0
0.0466666669 -0.0141709624 0
0.144999996 -0.0170577131 0
0.141666666 -0.0170577131 0
0.138333336 -0.0170577131 0
0.135000005 -0.0170577131 0
0.13166666 -0.0170577131 0
0.12833333 -0.0170577131 0
0.125 -0.0170577131 0
0.12166667 -0.0170577131 0
0.118333332 -0.0170577131 0
0.115000002 -0.0170577131 0
0.111666664 -0.0170577131 0
0.108333334 -0.0170577131 0
0.104999997 -0.0170577131 0
0.101666667 -0.0170577131 0
0.0983333364 -0.0170577131 0
0.0949999988 -0.0170577131 0
0.0916666687 -0.0170577131 0
0.088333331 -0.0170577131 0
0.0850000009 -0.0170577131 0
0.0816666633 -0.0170577131 0
0.0783333331 -0.0170577131 0
0.075000003 -0.0170577131 0
0.0716666654 -0.0170577131 0
0.0683333352 -0.0170577131 0
0.0649999976 -0.0170577131 0
0.0616666675 -0.0170577131 0
0.0583333336 -0.0170577131 0
0.0549999997 -0.0170577131 0
0.0516666658 -0.0170577131 0
0.0483333319 -0.0170577131 0
0.0450000018 -0.0170577131 0
0.143333331 -0.0199444648 0
0.140000001 -0.0199444648 0
0.13666667 -0.0199444648 0
0.13333334 -0.0199444648 0
0.129999995 -0.0199444648 0
0.126666665 -0.0199444648 0
0.123333335 -0.0199444648 0
0.119999997 -0.0199444648 0
0.116666667 -0.0199444648 0
0.113333337 -0.0199444648 0
0.109999999 -0.0199444648 0
0.106666669 -0.0199444648 0
0.103333332 -0.0199444648 0
0.100000001 -0.0199444648 0
0.0966666639 -0.0199444648 0
0.0933333337 -0.0199444648 0
0.0900000036 -0.0199444648 0
0.086666666 -0.0199444648 0
0.0833333358 -0.0199444648 0
0.0799999982 -0.0199444648 0
0.0766666681 -0.0199444648 0
0.0733333305 -0.0199444648 0
0.0700000003 -0.0199444648 0
0.0666666701 -0.0199444648 0
0.0633333325 -0.0199444648 0
0.0599999987 -0.0199444648 0
0.0566666685 -0.0199444648 0
0.0533333346 -0.0199444648 0
0.0500000007 -0.0199444648 0
0.0466666669 -0.0199444648 0
0.043333333 -0.0199444648 0
0.141666666 -0.0228312165 0
0.138333336 -0.0228312165 0
0.135000005 -0.0228312165 0
0.13166666 -0.0228312165 0
0.12833333 -0.0228312165 0
0.125 -0.0228312165 0
0.12166667 -0.0228312165 0
0.118333332 -0.0228312165 0
0.115000002 -0.0228312165 0
0.111666664 -0.0228312165 0
0.108333334 -0.0228312165 0
0.104999997 -0.0228312165 0
0.101666667 -0.0228312165 0
0.0983333364 -0.0228312165 0
0.0949999988 -0.0228312165 0
0.0916666687 -0.0228312165 0
0.088333331 -0.0228312165 0
0.0850000009 -0.0228312165 0
0.0816666633 -0.0228312165 0
0.0783333331 -0.0228312165 0
0.075000003 -0.0228312165 0
0.0716666654 -0.0228312165 0
0.0683333352 -0.0228312165 0
0.0649999976 -0.0228312165 0
0.0616666675 -0.0228312165 0
0.0583333336 -0.0228312165 0
0.0549999997 -0.0228312165 0
0.0516666658 -0.0228312165 0
0.0483333319 -0.0228312165 0
0.0450000018 -0.0228312165 0
0.0416666679 -0.0228312165 0
0.140000001 -0.0257179681 0
0.13666667 -0.0257179681 0
0.13333334 -0.0257179681 0
0.129999995 -0.0257179681 0
0.126666665 -0.0257179681 0
0.123333335 -0.0257179681 0
0.119999997 -0.0257179681 0
0.116666667 -0.0257179681 0
0.113333337 -0.0257179681 0
0.109999999 -0.0257179681 0
0.106666669 -0.0257179681 0
0.103333332 -0.0257179681 0
0.100000001 -0.0257179681 0
0.0966666639 -0.0257179681 0
0.0933333337 -0.0257179681 0
0.0900000036 -0.0257179681 0
0.086666666 -0.0257179681 0
0.0833333358 -0.0257179681 0
0.0799999982 -0.0257179681 0
0.0766666681 -0.0257179681 0
0.0733333305 -0.0257179681 0
0.0700000003 -0.0257179681 0
0.0666666701 -0.0257179681 0
0.0633333325 -0.0257179681 0
0.0599999987 -0.0257179681 0
0.0566666685 -0.0257179681 0
0.0533333346 -0.0257179681 0
0.0500000007 -0.0257179681 0
0.0466666669 -0.0257179681 0
0.043333333 -0.0257179681 0
0.0399999991 -0.0257179681 0
0.138333336 -0.0286047198 0
0.135000005 -0.0286047198 0
0.13166666 -0.0286047198 0
0.12833333 -0.0286047198 0
0.125 -0.0286047198 0
0.12166667 -0.0286047198 0
0.118333332 -0.0286047198 0
0.115000002 -0.0286047198 0
0.111666664 -0.0286047198 0
0.108333334 -0.0286047198 0
0.104999997 -0.0286047198 0
0.101666667 -0.0286047198 0
0.0983333364 -0.0286047198 0
0.0949999988 -0.0286047198 0
0.0916666687 -0.0286047198 0
0.088333331 -0.0286047198 0
0.0850000009 -0.0286047198 0
0.0816666633 -0.0286047198 0
0.0783333331 -0.0286047198 0
0.075000003 -0.0286047198 0
0.0716666654 -0.0286047198 0
0.0683333352 -0.0286047198 0
0.0649999976 -0.0286047198 0
0.0616666675 -0.0286047198 0
0.0583333336 -0.0286047198 0
0.0549999997 -0.0286047198 0
0.0516666658 -0.0286047198 0
0.0483333319 -0.0286047198 0
0.0450000018 -0.0286047198 0
0.0416666679 -0.0286047198 0
0.038333334 -0.0286047198 0
0.13666667 -0.0314914696 0
0.13333334 -0.0314914696 0
0.129999995 -0.0314914696 0
0.126666665 -0.0314914696 0
0.123333335 -0.0314914696 0
0.119999997 -0.0314914696 0
0.116666667 -0.0314914696 0
0.113333337 -0.0314914696 0
0.109999999 -0.0314914696 0
0.106666669 -0.0314914696 0
0.103333332 -0.0314914696 0
0.100000001 -0.0314914696 0
0.0966666639 -0.0314914696 0
0.0933333337 -0.0314914696 0
0.0900000036 -0.0314914696 0
0.086666666 -0.0314914696 0
0.0833333358 -0.0314914696 0
0.0799999982 -0.0314914696 0
0.0766666681 -0.0314914696 0
0.0733333305 -0.0314914696 0
0.0700000003 -0.0314914696 0
0.0666666701 -0.0314914696 0
0.0633333325 -0.0314914696 0
0.0599999987 -0.0314914696 0
0.0566666685 -0.0314914696 0
0.0533333346 -0.0314914696 0
0.0500000007 -0.0314914696 0
0.0466666669 -0.0314914696 0
0.043333333 -0.0314914696 0
0.0399999991 -0.0314914696 0
0.0366666652 -0.0314914696 0
0.135000005 -0.0343782231 0
0.13166666 -0.0343782231 0
0.12833333 -0.0343782231 0
0.125 -0.0343782231 0
0.12166667 -0.0343782231 0
0.118333332 -0.0343782231 0
0.115000002 -0.0343782231 0
0.111666664 -0.0343782231 0
0.108333334 -0.0343782231 0
0.104999997 -0.0343782231 0
0.101666667 -0.0343782231 0
0.0983333364 -0.0343782231 0
0.0949999988 -0.0343782231 0
0.0916666687 -0.0343782231 0
0.088333331 -0.0343782231 0
0.0850000009 -0.0343782231 0
0.0816666633 -0.0343782231 0
0.0783333331 -0.0343782231 0
0.075000003 -0.0343782231 0
0.0716666654 -0.0343782231 0
0.0683333352 -0.0343782231 0
0.0649999976 -0.0343782231 0
0.0616666675 -0.0343782231 0
0.0583333336 -0.0343782231 0
0.0549999997 -0.0343782231 0
0.0516666658 -0.0343782231 0
0.0483333319 -0.0343782231 0
0.0450000018 -0.0343782231 0
0.0416666679 -0.0343782231 0
0.038333334 -0.0343782231 0
0.0350000001 -0.0343782231 0
0.13333334 -0.0372649729 0
0.129999995 -0.0372649729 0
0.126666665 -0.0372649729 0
0.123333335 -0.0372649729 0
0.119999997 -0.0372649729 0
0.116666667 -0.0372649729 0
0.113333337 -0.0372649729 0
0.109999999 -0.0372649729 0
0.106666669 -0.0372649729 0
0.103333332 -0.0372649729 0
0.100000001 -0.0372649729 0
0.0966666639 -0.0372649729 0
0.0933333337 -0.0372649729 0
0.0900000036 -0.0372649729 0
0.086666666 -0.0372649729 0
0.0833333358 -0.0372649729 0
0.0799999982 -0.0372649729 0
0.0766666681 -0.0372649729 0
0.0733333305 -0.0372649729 0
0.0700000003 -0.0372649729 0
0.0666666701 -0.0372649729 0
0.0633333325 -0.0372649729 0
0.0599999987 -0.0372649729 0
0.0566666685 -0.0372649729 0
0.0533333346 -0.0372649729 0
0.0500000007 -0.0372649729 0
0.0466666669 -0.0372649729 0
0.043333333 -0.0372649729 0
0.0399999991 -0.0372649729 0
0.0366666652 -0.0372649729 0
0.0333333351 -0.0372649729 0
0.13166666 -0.0401517227 0
0.12833333 -0.0401517227 0
0.125 -0.0401517227 0
0.12166667 -0.0401517227 0
0.118333332 -0.0401517227 0
0.115000002 -0.0401517227 0
0.111666664 -0.0401517227 0
[...]
POINT_DATA 961
SCALARS Temp float 1
LOOKUP_TABLE default
437.1498480774809
389.5697977683675
348.80252310937857
315.6221069464007
289.63571124901966
270.03855341633675
255.80390930911727
245.8417183870558
239.12036001819405
234.7454864168899
231.99593441038704
230.3256586965542
229.34388184401095
228.7849575753332
228.47672648699393
228.3127309539575
228.23061885419907
228.1972089731477
228.19985481111536
228.2436750621045
228.3547069654974
228.58951035289874
229.0519115415374
229.9168595840427
231.45930270598583
234.08289913538175
238.3396798586421
244.92992310469418
254.67453515823084
268.46572598732996
287.43191692588755
389.56983599591774
343.2487793377947
304.9121758991109
274.2665967501438
250.66661806230425
233.157172487252
220.63951296842976
212.01298408747945
206.27889700961538
202.59978527717192
200.3190841078028
198.95170084846697
198.15800444145904
197.71165287789594
197.46871550975953
197.3420015654147
197.28206123935425
197.26487548383074
197.28576968831038
197.35933658912143
197.52565588858363
197.86349500820407
198.51095911610577
199.69269816962128
201.75014164793308
205.16761290019423
210.58380909789724
218.7777882894424
230.6226554905073
247.01642717051917
268.4657460573353
348.8024799159432
304.9121551477223
269.0575911291353
240.7737321071398
219.24809995354505
203.44777248732723
192.26102807042454
184.6186759397173
179.57812729381268
176.3661514878079
174.38694212933643
173.20648442211322
172.52441402710596
172.14252575865956
171.93596971130188
171.83008785697982
171.783870551629
171.77990617251382
171.8205121363742
171.9300763533832
172.1640830342308
172.62547185613792
173.4883132391991
175.02684248422568
177.64478911577405
181.89612386705218
188.48568788331843
198.23835332195515
212.027603930637
230.6226463084932
254.67454591798378
315.62204928498795
274.26656496014203
240.7737322264979
214.55700016938312
194.73424902365224
180.26039583314954
170.05456754613618
163.1033464972187
158.52806081718117
155.6161071312603
153.82265629225424
152.75291123803837
152.13455227183766
151.78832091526527
151.6016398028865
151.50778736953842
151.47140555445756
151.48030679812751
151.54349353913557
151.69561114101495
152.00839523026983
152.60953305588754
153.70822657125373
155.62439780844915
158.81506567116247
163.8878077477329
171.5895223415967
182.75940286280638
198.23836947069512
218.77780153829875
244.92991464835458
289.6356563989149
250.6665877364239
219.24808271721002
194.73432150657723
176.23603579010188
162.74094243025246
153.2243055697418
146.736696653872
142.46009984790558
139.73283184582746
138.0492451024917
137.04254509842556
136.45925500001906
136.13221434814304
135.95644879558017
135.87025634882028
135.84231456197358
135.86497459490127
135.95385000057064
136.15404377535094
136.5535118579246
137.30360833628131
138.64535242082135
140.93736134363036
144.67792076085854
150.51073409318235
159.2032030665833
171.5895153074143
188.48568301935472
210.58380764742466
238.339685589885
270.03849725078106
233.15721145012222
203.4478236109601
180.2603633537659
162.7409295903795
149.9342780922494
140.8802942573514
134.69039731026214
130.59763608117552
127.97952574131513
126.35842903266439
125.3863265857017
124.82173962020474
124.50490090908526
124.33545417712246
124.25497411009171
124.23528131581499
124.27290568347013
124.3899333496388
124.64162324476452
125.13111730559469
126.03083452341754
127.60843029069002
130.25249276756338
134.48993636730043
140.98507530388866
150.51073071876823
163.887809159355
181.8961307952271
205.16759130218358
234.08289380782085
255.80392007845967
220.63953792458312
192.2610768145021
170.05452922382216
153.22428987524475
140.8802899520445
132.12364846027856
126.11712940867896
122.13306209832278
119.5770251365925
117.9901767895786
117.03643431781568
116.48159774740095
116.17027709321972
116.00493385395814
115.92942428848447
115.91820822298857
115.97170305038178
116.11809569881451
116.42194502656807
116.99966860747948
118.04108363029304
119.83438021739583
122.78922439458333
127.45001272266495
134.48993227192818
144.6779122924531
158.8150534866379
177.64478809844428
201.75013980145144
231.4593112801657
245.8417346249822
212.01301218451792
184.6186174148498
163.10331191180777
146.73669682981648
134.69040960329073
126.11712629642193
120.2191351339891
116.29691421156731
113.77491231288901
112.20620068813375
111.26193556537146
110.71215839849293
110.40403157599691
110.24179327600301
110.17101498239442
110.16845537263394
110.23806621900071
110.41348791380013
110.7672621096863
111.42661543220207
112.594667201548
114.57410485581195
117.78786606855805
122.78922201329833
130.25248927934538
140.93736355091104
155.62439923421033
175.0268276019895
199.69267872481632
229.91684936084332
239.12036832887023
206.27893141269158
179.57808275490967
158.52804295685144
142.46010269378948
130.5976250356835
122.1330590883726
116.29692317103888
112.40865352844023
109.90468256631186
108.34529695827003
107.40584341395554
106.85877057971075
106.55273694725811
106.39316665937316
106.3269986938913
106.33298611689946
106.41815736193705
106.62074431230339
107.0196898929184
107.75039449141114
109.0253495956038
111.15651884481979
114.5741071479697
119.83438120953369
127.60842985341722
138.64535102575388
153.70822222934171
173.48831686655183
198.5109664161733
229.05193052723615
234.74552536925304
202.59972088235716
176.36612761257632
155.61610299755944
139.73284461479986
127.97952460884359
119.57703147027453
113.77490996080597
109.90468072454212
107.40998408484788
105.85530543028506
104.91832171030245
104.37282915415172
104.0683869179122
103.911264753184
103.84951586951811
103.86357214824237
103.96299764041662
104.18964860512875
104.62725209338048
105.41693392684083
106.77722313722367
109.02534788440498
112.59466688629668
118.04108322697408
126.03083368070544
137.30360766019353
152.60951500097588
172.62545685120628
197.86347804871033
228.58950198769227
231.99599521438782
200.31903323578953
174.38692821106713
153.82266243047917
138.0492335371292
126.35843022534655
117.99018511439942
112.20620115903196
108.3452992512969
105.85530519997236
104.30302688651174
103.36741101051459
102.8230071515438
102.51993752220896
102.36510282867494
102.30745240285748
102.32876880586082
102.44058438807035
102.68743057408712
103.15635655219258
103.99218070078295
105.41693605260994
107.75039503988515
111.42661388569448
116.999666168089
125.131116047747
136.55350890376567
152.00839329564624
172.16408841753494
197.52566437366175
228.35469377375256
230.325597660305
198.9516673668929
173.20648177813084
152.75292385574622
137.04253511121945
125.38633130314005
117.03642909815159
111.26193663964972
107.40583933382163
104.91832162159893
103.36741272210783
102.43273744833867
101.8892673383841
101.58749567858668
101.43479777063058
101.3808186495908
101.40837059430281
101.53042055304539
101.79334286450467
102.28632544642704
103.15635820436893
104.62725325912184
107.01968910669592
110.76726557397077
116.42194969570228
124.64163076943896
136.15403854312683
151.69560491854511
171.93007776417753
197.35933863826236
228.24368904959778
229.3438519829274
198.1579972821088
172.52443097833705
152.1345375976798
136.45925704484674
124.82175315355838
116.48159656741417
110.71216303046347
106.85876873008522
104.37283061251023
102.82300618966333
101.88926675411851
101.34680998297299
101.0463783762804
100.89569529882024
100.84492442559052
100.87762016203862
101.0077326862438
101.28282046816712
101.79334145778175
102.6874301329956
104.18965025493324
106.62074135051887
110.41348682484967
116.11809392281144
124.38993079746
135.95384821063632
151.54349191191366
171.8205190433821
197.28574685746815
228.19985875186444
228.78493327414378
197.7116507096573
172.14254889707365
151.7883079615943
136.1322185654639
124.50489210207571
116.17027781352587
110.40402781633647
106.5527357255465
104.06838909308426
102.51993638241689
101.5874956994244
101.0463782292344
100.74748632921633
100.59878751219122
100.55081861672575
100.58764541677004
100.72385832541848
101.00773246622481
101.53042094101751
102.44058427349339
103.9629986744411
106.41815708944101
110.23806907838711
115.97170783046441
124.27290200458268
135.86497004057063
151.4803015947469
171.77990765291037
197.26487925595708
228.1972080958873
228.47672460766222
197.4687341862865
171.93595515948263
151.60164041745378
135.956465624696
124.33545236060527
116.00494106338449
110.24179249954368
106.393166602083
103.91126428878596
102.36510284163784
101.43479818973769
100.8956951408316
100.59878770245501
100.45221881009782
100.406794752583
100.4469359517243
100.58764527034289
100.87761979335058
101.40837011995166
102.32876885095169
103.86357143363281
106.33298329544046
110.16845438522179
115.91820643231894
124.23528017865526
135.84231366930095
151.47140519238727
171.78385397856434
197.28205734750705
228.23061039620274
228.31273134495046
197.3420238056494
171.83007516917536
151.50779103246077
135.87024355979358
124.25497406560343
115.92941789207357
110.1710154552432
106.32700016717781
103.84951545628476
102.30745264128403
101.3808176360951
100.84492449715484
100.5508183492852
100.40679475977339
100.36388667424741
100.40679483540067
100.5508184595227
100.8449248655392
101.38081808952361
102.30745213628978
103.84951699128237
106.32699868368317
110.17101828926607
115.9294215291268
124.2549708776276
135.87025332203112
151.5077827951974
171.83009234289057
197.34199157923373
228.31273282783678
228.23064103123266
197.2820379997335
171.78387763700664
151.47142567237282
135.8423110510693
124.23529061265734
115.91820687092726
110.16845832645475
106.33298331515144
103.86357334306794
102.32877025687792
101.40837013475775
100.87762072714493
100.58764536495013
100.44693602977246
100.40679489226682
100.45221893079848
100.59878737330813
100.89569530571563
101.43479749961674
102.36510179846454
103.91126434086348
106.39316401737604
110.2417920798283
116.00493338579663
124.33545384828457
135.9564492870444
151.6016205515646
171.93596677203703
197.46869870391197
228.47671856478217
228.19724068373148
197.26485802105904
171.77991752161955
151.48028772502806
135.8649737218851
124.27289625707395
115.97170334818274
110.23807110419042
106.41815459819122
103.96299944131802
102.44058349857391
101.53042031340118
101.00773225496336
100.72385817009304
100.58764554856725
100.55081864958089
100.59878755754416
100.74748653027123
101.04637847201103
101.58749536598327
102.51993727003745
104.06838802519566
106.55273740593115
110.40402994301056
116.17027510206348
124.50489837394454
136.13221096055466
151.7883189047571
172.1425172944706
197.71164435295876
228.78495880767363
228.19982184480497
197.2857593934333
171.82052976672688
151.54347621050678
135.9538530400408
124.38992465611932
116.11809500976626
110.41348364273621
106.62074224250767
104.18965114737736
102.68742927042275
101.79334247127058
101.28282023213569
101.00773252339107
100.87762013743496
100.84492441466489
100.89569515907274
101.04637854785443
101.34680974654923
101.88926648815843
102.82300683219403
104.37283001699056
106.85877013530798
110.71216036930194
116.48160146894033
124.82174650372909
136.45924919460975
152.13455551367915
172.52441336535972
198.15800466747794
229.34389254934706
228.2436677331534
197.35934967376122
171.930058468476
151.6956088096555
136.1540300363276
124.64162416564412
116.42195247884183
110.76726181688804
107.01969029358287
104.62725204556632
103.15635721227501
102.28632508734245
101.79334257888779
101.5304208496687
101.4083706197022
101.38081865355564
101.43479786810158
101.5874957897783
101.88926712243865
102.43273793753872
103.3674119890948
104.9183225917782
107.40584051235226
111.26193453329518
117.03643306061963
125.38632514397311
137.04254281116843
152.75289835208767
173.2064772124678
198.95169293307896
230.32565902424972
228.35470335742286
197.5256742440383
172.16406679862536
152.00839871958908
136.55350022421194
125.13111751634511
116.99966151760496
111.42661526743296
107.75039645435828
105.41693472885262
103.99218237422545
103.15635622116085
102.68743031868777
102.44058430991986
102.32876870897195
102.30745239082842
102.36510295623567
102.51993736622464
102.82300701346095
103.36741136304721
104.3030264591467
105.85530601057917
108.34529737107553
112.20620438260377
117.99018024614058
126.35842466505395
138.0492477514774
153.82265097470798
174.38694071878015
200.31908376263405
231.9959308401636
228.58950851812114
197.86345104165144
172.62546091078912
152.60950354527677
137.30359877234284
126.0308376035528
118.04107800923977
112.59466874391595
109.02534615483371
106.7772216980676
105.41693337858081
104.62725161709763
104.1896491372441
103.96299771822412
103.86357213834935
103.84951590962709
103.91126478320744
104.06838679109019
104.37282942532092
104.91832125667253
105.85530604867733
107.40998477108724
109.90467936713199
113.7749127549764
119.57702745005056
127.9795312828114
139.73282729106285
155.61610445433328
176.36615924109242
202.5997963809618
234.7455025082006
229.05195901278884
198.5109585694545
173.4883395993651
153.70822421338195
138.6453638913201
127.60843222497235
119.83439044763993
114.57411531822996
111.15652216912316
109.02535689900134
107.75039848064365
107.01969373265916
106.62074825573026
106.4181611593238
106.33299019691579
106.32700279398803
106.39317044684016
106.55274077235633
106.85877451581749
107.40584666969981
108.34530069627716
109.90468416336448
112.40865783729522
116.29692110596442
122.13305564660745
130.59763480595953
142.46009242837292
158.5280512075439
179.57812295860975
206.278866869058
239.12034156708043
229.9168430340795
199.6927051498337
175.02683073096705
155.6244024752115
140.93738096894043
130.2524927101483
122.78923357305304
117.78787157609032
114.57411003056046
112.59467309175899
111.4266210875511
110.76726919706388
110.41349427691932
110.23807232820887
110.16846145246775
110.17102098808488
110.24179921726447
110.4040376666249
110.71216397624383
111.26194168114205
112.20620643220859
113.77491644671005
116.29692048150535
120.21913596250347
126.11713372300913
134.69039806043696
146.73669808591038
163.1033353586678
184.61867280508832
212.0129771922911
245.8417183834857
231.45929684612466
201.75015952146612
177.64478422548493
158.8150648988447
144.67791146923926
134.48994157397436
127.45002143958729
122.78922699570207
119.83438875606086
118.04108785419001
116.99967267985154
116.42194926311205
116.11809970582493
115.97170765535617
115.91821284785492
115.92942855661332
116.00493834226218
116.17028159342284
116.48160186429224
117.03643887825505
117.99018024235863
119.5770305931946
122.13306367693023
126.11713089265376
132.12365998326285
140.88028747190285
153.2243022833884
170.0545669249837
192.26102378150992
220.63951181960525
255.80392195903485
234.08290205667066
205.1675759991345
181.89611866044345
163.88781690388726
150.51072317682042
140.98507953102532
134.48993384684331
130.25249054632653
127.60842937840232
126.03083353262109
125.13111857566976
124.64162371963707
124.38993346054096
124.27290573486837
124.23528127354055
124.25497417686447
124.3354543489042
124.5049008909993
124.82174017249827
125.38632689971887
126.35842879968494
127.97952739355135
130.59763468623282
134.69040134326704
140.88028536084565
149.9342796354896
162.74094890233087
180.26040760208795
203.4477879874475
233.1571842435297
270.03849771170314
238.3396826768876
210.58378137497886
188.48567712178414
171.58949633064583
159.20319771772418
150.51072897313009
144.67790854895068
140.93735716834505
138.64534314363277
137.30359896833187
136.55350272831453
136.15403431140803
135.95384148523343
135.8649661370282
135.84230565103027
135.87024784351016
135.956440213822
136.13220553537897
136.45924661822795
137.04253627734138
138.04923778864799
139.73282221790743
142.460090973444
146.7366952441876
153.22429389290426
162.74094215236823
176.23605450387626
194.7342607734566
219.2480385767861
250.6665587777087
289.6356506075444
244.92992792124417
218.77781700721442
198.2384064144188
182.7594208239497
171.58955270713142
163.88782918992752
158.81508687625478
155.6244200577141
153.70824843300684
152.60955769508578
152.0084188978636
151.69563424140551
151.54351648047884
151.48032957658896
151.4714285694246
151.50781038853466
151.60166271748218
151.78834427694113
152.1345751068707
152.75293369023706
153.82267970085002
155.61612778490547
158.52808427045306
163.103358713891
170.05458530000791
180.26042396917538
194.73429193149687
214.556966165838
240.77369330615542
274.26653441427715
315.6220521150888
254.67455713219138
230.6226797132265
212.02762035831495
198.23838302028116
188.48571650299138
181.89614347588096
177.64481736581874
175.0268646770206
173.48833512577062
172.6254938493505
172.16410443737053
171.93009889502355
171.8205347575429
171.77992825824495
171.78389315650654
171.83011025111543
171.9359918304574
172.1425480955141
172.52443600607782
173.20650710197324
174.38696258860492
176.36617206857062
179.5781520579709
184.61869040776293
192.2610485853655
203.44780369847433
219.2480561389215
240.77369262508273
269.05755052624414
304.91211935271537
348.8024735296746
268.4657488747506
247.0164506135926
230.62265812289814
218.77780404749265
210.58381551807793
205.1676192680168
201.75014924367306
199.6927055077192
198.51096983818132
197.86350465158216
197.52566475438636
197.35934531036511
197.2857782459983
197.26488446974878
197.28207015533488
197.342010462035
197.46872485767943
197.71166162765655
198.15801317207422
198.95171036686733
200.3190915441603
202.59979484395842
206.27889758558533
212.01298890873448
220.63952529046665
233.15719564398896
250.66657002056107
274.26653781789815
304.91211174841436
343.2487184545165
389.5697270203329
287.4319332596183
268.46572041518544
254.67454246565228
244.92992941345264
238.33967646899558
234.08290489600347
231.45930201834418
229.9168596267061
229.05191162601304
228.58950891421188
228.35470708355533
228.24367512948643
228.1998547666593
228.1972092859704
228.23061892603502
228.31273097910338
228.4767261544479
228.78495760226423
229.34388220984917
230.32565723038948
231.99593320010396
234.74548894776436
239.12035422111438
245.8417168927235
255.80391495612923
270.03849166588105
289.6356528722996
315.62204106642656
348.80244918687316
389.56970935054727
437.14944059115953
