# vtk DataFile Version 2.0
Unstructured Grid Example
ASCII
DATASET UNSTRUCTURED_GRID

POINTS 961 float
0.150000006 -0.00839745998 0
0.146666661 -0.00839745998 0
0.143333331 -0.00839745998 0
0.140000001 -0.00839745998 0
0.13666667 -0.00839745998 0
0.13333334 -0.00839745998 0
0.129999995 -0.00839745998 0
0.126666665 -0.00839745998 0
0.123333335 -0.00839745998 0
0.119999997 -0.00839745998 0
0.116666667 -0.00839745998 0
0.113333337 -0.00839745998 0
0.109999999 -0.00839745998 0
0.106666669 -0.00839745998 0
0.103333332 -0.00839745998 0
0.100000001 -0.00839745998 0
0.0966666639 -0.00839745998 0
0.0933333337 -0.00839745998 0
0.0900000036 -0.00839745998 0
0.086666666 -0.00839745998 0
0.0833333358 -0.00839745998 0
0.0799999982 -0.00839745998 0
0.0766666681 -0.00839745998 0
0.0733333305 -0.00839745998 0
0.0700000003 -0.00839745998 0
0.0666666701 -0.00839745998 0
0.0633333325 -0.00839745998 0
0.0599999987 -0.00839745998 0
0.0566666685 -0.00839745998 0
0.0533333346 -0.00839745998 0
0.0500000007 -0.00839745998 0
0.148333326 -0.0112842107 0
0.144999996 -0.0112842107 0
0.141666666 -0.0112842107 0
0.138333336 -0.0112842107 0
0.135000005 -0.0112842107 0
0.13166666 -0.0112842107 0
0.12833333 -0.0112842107 0
0.125 -0.0112842107 0
0.12166667 -0.0112842107 0
0.118333332 -0.0112842107 0
0.115000002 -0.0112842107 0
0.111666664 -0.0112842107 0
0.108333334 -0.0112842107 0
0.104999997 -0.0112842107 0
0.101666667 -0.0112842107 0
0.0983333364 -0.0112842107 0
0.0949999988 -0.0112842107 0
0.0916666687 -0.0112842107 0
0.088333331 -0.0112842107 0
0.0850000009 -0.0112842107 0
0.0816666633 -0.0112842107 0
0.0783333331 -0.0112842107 0
0.075000003 -0.0112842107 0
0.0716666654 -0.0112842107 0
0.0683333352 -0.0112842107 0
0.0649999976 -0.0112842107 0
0.0616666675 -0.0112842107 0
0.0583333336 -0.0112842107 0
0.0549999997 -0.0112842107 0
0.0516666658 -0.0112842107 0
0.0483333319 -0.0112842107 0
0.146666661 -0.0141709624 0
0.143333331 -0.0141709624 0
0.140000001 -0.0141709624 0
0.13666667 -0.0141709624 0
0.13333334 -0.0141709624 0
0.129999995 -0.0141709624 0
0.126666665 -0.0141709624 0
0.123333335 -0.0141709624 0
0.119999997 -0.0141709624 0
0.116666667 -0.0141709624 0
0.113333337 -0.0141709624 0
0.109999999 -0.0141709624 0
0.106666669 -0.0141709624 0
0.103333332 -0.0141709624 0
0.100000001 -0.0141709624 0
0.0966666639 -0.0141709624 0
0.0933333337 -0.0141709624 0
0.0900000036 -0.0141709624 0
0.086666666 -0.0141709624 0
0.0833333358 -0.0141709624 0
0.0799999982 -0.0141709624 0
0.0766666681 -0.0141709624 0
0.0733333305 -0.0141709624 0
0.0700000003 -0.0141709624 0
0.0666666701 -0.0141709624 0
0.0633333325 -0.0141709624 0
0.0599999987 -0.0141709624 0
0.0566666685 -0.0141709624 0
0.0533333346 -0.0141709624 0
0.0500000007 -0.0141709624 0
0.0466666669 -0.0141709624 0
0.144999996 -0.0170577131 0
0.141666666 -0.0170577131 0
0.138333336 -0.0170577131 0
0.135000005 -0.0170577131 0
0.13166666 -0.0170577131 0
0.12833333 -0.0170577131 0
0.125 -0.0170577131 0
0.12166667 -0.0170577131 0
0.118333332 -0.0170577131 0
0.115000002 -0.0170577131 0
0.111666664 -0.0170577131 0
0.108333334 -0.0170577131 0
0.104999997 -0.0170577131 0
0.101666667 -0.0170577131 0
0.0983333364 -0.0170577131 0
0.0949999988 -0.0170577131 0
0.0916666687 -0.0170577131 0
0.088333331 -0.0170577131 0
0.0850000009 -0.0170577131 0
0.0816666633 -0.0170577131 0
0.0783333331 -0.0170577131 0
0.075000003 -0.0170577131 0
0.0716666654 -0.0170577131 0
0.0683333352 -0.0170577131 0
0.0649999976 -0.0170577131 0
0.0616666675 -0.0170577131 0
0.0583333336 -0.0170577131 0
0.0549999997 -0.0170577131 0
0.0516666658 -0.0170577131 0
0.0483333319 -0.0170577131 0
0.0450000018 -0.0170577131 0
0.143333331 -0.0199444648 0
0.140000001 -0.0199444648 0
0.13666667 -0.0199444648 0
0.13333334 -0.0199444648 0
0.129999995 -0.0199444648 0
0.126666665 -0.0199444648 0
0.123333335 -0.0199444648 0
0.119999997 -0.0199444648 0
0.116666667 -0.0199444648 0
0.113333337 -0.0199444648 0
0.109999999 -0.0199444648 0
0.106666669 -0.0199444648 0
0.103333332 -0.0199444648 0
0.100000001 -0.0199444648 0
0.0966666639 -0.0199444648 0
0.0933333337 -0.0199444648 0
0.0900000036 -0.0199444648 0
0.086666666 -0.0199444648 0
0.0833333358 -0.0199444648 0
0.0799999982 -0.0199444648 0
0.0766666681 -0.0199444648 0
0.0733333305 -0.0199444648 0
0.0700000003 -0.0199444648 0
0.0666666701 -0.0199444648 0
0.0633333325 -0.0199444648 0
0.0599999987 -0.0199444648 0
0.0566666685 -0.0199444648 0
0.0533333346 -0.0199444648 0
0.0500000007 -0.0199444648 0
0.0466666669 -0.0199444648 0
0.043333333 -0.0199444648 0
0.141666666 -0.0228312165 0
0.138333336 -0.0228312165 0
0.135000005 -0.0228312165 0
0.13166666 -0.0228312165 0
0.12833333 -0.0228312165 0
0.125 -0.0228312165 0
0.12166667 -0.0228312165 0
0.118333332 -0.0228312165 0
0.115000002 -0.0228312165 0
0.111666664 -0.0228312165 0
0.108333334 -0.0228312165 0
0.104999997 -0.0228312165 0
0.101666667 -0.0228312165 0
0.0983333364 -0.0228312165 0
0.0949999988 -0.0228312165 0
0.0916666687 -0.0228312165 0
0.088333331 -0.0228312165 0
0.0850000009 -0.0228312165 0
0.0816666633 -0.0228312165 0
0.0783333331 -0.0228312165 0
0.075000003 -0.0228312165 0
0.0716666654 -0.0228312165 0
0.0683333352 -0.0228312165 0
0.0649999976 -0.0228312165 0
0.0616666675 -0.0228312165 0
0.0583333336 -0.0228312165 0
0.0549999997 -0.0228312165 0
0.0516666658 -0.0228312165 0
0.0483333319 -0.0228312165 0
0.0450000018 -0.0228312165 0
0.0416666679 -0.0228312165 0
0.140000001 -0.0257179681 0
0.13666667 -0.0257179681 0
0.13333334 -0.0257179681 0
0.129999995 -0.0257179681 0
0.126666665 -0.0257179681 0
0.123333335 -0.0257179681 0
0.119999997 -0.0257179681 0
0.116666667 -0.0257179681 0
0.113333337 -0.0257179681 0
0.109999999 -0.0257179681 0
0.106666669 -0.0257179681 0
0.103333332 -0.0257179681 0
0.100000001 -0.0257179681 0
0.0966666639 -0.0257179681 0
0.0933333337 -0.0257179681 0
0.0900000036 -0.0257179681 0
0.086666666 -0.0257179681 0
0.0833333358 -0.0257179681 0
0.0799999982 -0.0257179681 0
0.0766666681 -0.0257179681 0
0.0733333305 -0.0257179681 0
0.0700000003 -0.0257179681 0
0.0666666701 -0.0257179681 0
0.0633333325 -0.0257179681 0
0.0599999987 -0.0257179681 0
0.0566666685 -0.0257179681 0
0.0533333346 -0.0257179681 0
0.0500000007 -0.0257179681 0
0.0466666669 -0.0257179681 0
0.043333333 -0.0257179681 0
0.0399999991 -0.0257179681 0
0.138333336 -0.0286047198 0
0.135000005 -0.0286047198 0
0.13166666 -0.0286047198 0
0.12833333 -0.0286047198 0
0.125 -0.0286047198 0
0.12166667 -0.0286047198 0
0.118333332 -0.0286047198 0
0.115000002 -0.0286047198 0
0.111666664 -0.0286047198 0
0.108333334 -0.0286047198 0
0.104999997 -0.0286047198 0
0.101666667 -0.0286047198 0
0.0983333364 -0.0286047198 0
0.0949999988 -0.0286047198 0
0.0916666687 -0.0286047198 0
0.088333331 -0.0286047198 0
0.0850000009 -0.0286047198 0
0.0816666633 -0.0286047198 0
0.0783333331 -0.0286047198 0
0.075000003 -0.0286047198 0
0.0716666654 -0.0286047198 0
0.0683333352 -0.0286047198 0
0.0649999976 -0.0286047198 0
0.0616666675 -0.0286047198 0
0.0583333336 -0.0286047198 0
0.0549999997 -0.0286047198 0
0.0516666658 -0.0286047198 0
0.0483333319 -0.0286047198 0
0.0450000018 -0.0286047198 0
0.0416666679 -0.0286047198 0
0.038333334 -0.0286047198 0
0.13666667 -0.0314914696 0
0.13333334 -0.0314914696 0
0.129999995 -0.0314914696 0
0.126666665 -0.0314914696 0
0.123333335 -0.0314914696 0
0.119999997 -0.0314914696 0
0.116666667 -0.0314914696 0
0.113333337 -0.0314914696 0
0.109999999 -0.0314914696 0
0.106666669 -0.0314914696 0
0.103333332 -0.0314914696 0
0.100000001 -0.0314914696 0
0.0966666639 -0.0314914696 0
0.0933333337 -0.0314914696 0
0.0900000036 -0.0314914696 0
0.086666666 -0.0314914696 0
0.0833333358 -0.0314914696 0
0.0799999982 -0.0314914696 0
0.0766666681 -0.0314914696 0
0.0733333305 -0.0314914696 0
0.0700000003 -0.0314914696 0
0.0666666701 -0.0314914696 0
0.0633333325 -0.0314914696 0
0.0599999987 -0.0314914696 0
0.0566666685 -0.0314914696 0
0.0533333346 -0.0314914696 0
0.0500000007 -0.0314914696 0
0.0466666669 -0.0314914696 0
0.043333333 -0.0314914696 0
0.0399999991 -0.0314914696 0
0.0366666652 -0.0314914696 0
0.135000005 -0.0343782231 0
0.13166666 -0.0343782231 0
0.12833333 -0.0343782231 0
0.125 -0.0343782231 0
0.12166667 -0.0343782231 0
0.118333332 -0.0343782231 0
0.115000002 -0.0343782231 0
0.111666664 -0.0343782231 0
0.108333334 -0.0343782231 0
0.104999997 -0.0343782231 0
0.101666667 -0.0343782231 0
0.0983333364 -0.0343782231 0
0.0949999988 -0.0343782231 0
0.0916666687 -0.0343782231 0
0.088333331 -0.0343782231 0
0.0850000009 -0.0343782231 0
0.0816666633 -0.0343782231 0
0.0783333331 -0.0343782231 0
0.075000003 -0.0343782231 0
0.0716666654 -0.0343782231 0
0.0683333352 -0.0343782231 0
0.0649999976 -0.0343782231 0
0.0616666675 -0.0343782231 0
0.0583333336 -0.0343782231 0
0.0549999997 -0.0343782231 0
0.0516666658 -0.0343782231 0
0.0483333319 -0.0343782231 0
0.0450000018 -0.0343782231 0
0.0416666679 -0.0343782231 0
0.038333334 -0.0343782231 0
0.0350000001 -0.0343782231 0
0.13333334 -0.0372649729 0
0.129999995 -0.0372649729 0
0.126666665 -0.0372649729 0
0.123333335 -0.0372649729 0
0.119999997 -0.0372649729 0
0.116666667 -0.0372649729 0
0.113333337 -0.0372649729 0
0.109999999 -0.0372649729 0
0.106666669 -0.0372649729 0
0.103333332 -0.0372649729 0
0.100000001 -0.0372649729 0
0.0966666639 -0.0372649729 0
0.0933333337 -0.0372649729 0
0.0900000036 -0.0372649729 0
0.086666666 -0.0372649729 0
0.0833333358 -0.0372649729 0
0.0799999982 -0.0372649729 0
0.0766666681 -0.0372649729 0
0.0733333305 -0.0372649729 0
0.0700000003 -0.0372649729 0
0.0666666701 -0.0372649729 0
0.0633333325 -0.0372649729 0
0.0599999987 -0.0372649729 0
0.0566666685 -0.0372649729 0
0.0533333346 -0.0372649729 0
0.0500000007 -0.0372649729 0
0.0466666669 -0.0372649729 0
0.043333333 -0.0372649729 0
0.0399999991 -0.0372649729 0
0.0366666652 -0.0372649729 0
0.0333333351 -0.0372649729 0
0.13166666 -0.0401517227 0
0.12833333 -0.0401517227 0
0.125 -0.0401517227 0
0.12166667 -0.0401517227 0
0.118333332 -0.0401517227 0
0.115000002 -0.0401517227 0
0.111666664 -0.0401517227 0
[...]
POINT_DATA 961
SCALARS Temp float 1
LOOKUP_TABLE default
236.1358578777926
190.45977279516336
164.90508101700172
154.03218971448862
150.03954751391228
148.70694492187909
148.28905765671126
148.16358968033467
148.1271255721487
148.1167914988809
148.11391945419405
148.11314154247486
148.11293029436723
148.11287524642674
148.11286262764762
148.1128554777339
148.11285348826266
148.1128502607274
148.11285490755316
148.1128543138524
148.11285733750285
148.11286895359552
148.11292376652153
148.11326461917858
148.11523332087467
148.12628435760348
148.18570409749003
148.4869011095848
149.87510076299446
155.2706863148083
172.11107256408837
194.69232643596982
153.02738947222724
133.39214024965332
125.47635843026437
122.65565396149658
121.72893233801611
121.44091048818656
121.35494172615013
121.33006340155504
121.323035128706
121.32109212810565
121.32056153804487
121.3204193589389
121.32038191044158
121.32036930360913
121.320369768071
121.32036755048466
121.32036931512894
121.32036837471101
121.32036939089905
121.32037426017405
121.32039892110019
121.32056497354503
121.32150040176059
121.32673901061385
121.35487333718388
121.49778800534389
122.16438481856498
124.86725174400368
133.7203821209835
154.32715195847882
170.6510009490077
135.37503955885907
118.59543899677386
111.83058210591153
109.40144933251023
108.59587007941488
108.34340882702435
108.26754533474698
108.24547262136137
108.23921283998713
108.23747724960998
108.23700175396424
108.23687516896491
108.23684043330954
108.23683250425297
108.23682909609944
108.23682738070849
108.23682943873266
108.23682865270247
108.23683172890274
108.23684239762758
108.23691239986397
108.23730360021818
108.23947147795528
108.25100577534492
108.30905715433039
108.57913979016227
109.69495859774362
113.5845545987473
124.40251808553603
148.69201844857417
159.90328107046884
128.14967224118814
112.66095438885198
106.30624538185319
103.99785152935357
103.22605743054064
102.98278193181308
102.90937546439237
102.88795479369081
102.88186861992601
102.88017511664704
102.87971245117686
102.87958777617455
102.87955420316823
102.87954625259658
102.87954347115138
102.87954361361936
102.87954319499313
102.87954402521332
102.87954846818177
102.87957458710062
102.87972520738235
102.88054140764439
102.88482114471226
102.90607351483578
103.00416297653722
103.41276147511591
104.89911166700517
109.50221497122777
121.57836883693206
147.31021121633842
155.73830419952748
125.53056775259707
110.53366508387379
104.3162784035671
102.0438396889054
101.28122574105886
101.04026834144811
100.96744581136664
100.94617346735197
100.94012432361936
100.93844053836818
100.93798042043562
100.93785629799875
100.93782356836151
100.93781468194156
100.93781229765817
100.9378120942007
100.93781204563686
100.93781384740751
100.9378232584709
100.93787689414447
100.93816303004716
100.93963889490018
100.94686230202443
100.97987445157416
101.1178175277601
101.63387572691515
103.3422842412768
108.33597357649595
120.90082107619823
147.02840426160938
154.28289018715617
124.65832653141238
109.82903418506655
103.65477457786668
101.39281509987337
100.6326781875909
100.39230524984954
100.31962174145356
100.2983830881977
100.2923416266932
100.29066005161656
100.29020026443567
100.29007638013955
100.2900435335602
100.29003480474123
100.29003266901896
100.29003212546476
100.29003257213107
100.29003580227219
100.29005373530454
100.2901487912584
100.29063023630341
100.29295208007215
100.30345716841502
100.3473761152717
100.51481623304811
101.09416448998087
102.91524401890223
108.05856500011993
120.76085258816936
146.97542326559102
153.81038739806368
124.38478543408456
109.60854110697751
103.44717412779057
101.18818697650066
100.42871541968503
100.18849038431308
100.11584058195399
100.09460945170268
100.08856979297563
100.08688865324787
100.08642896772724
100.08630517830953
100.08627222240503
100.08626355417415
100.08626136461511
100.08626095495215
100.08626190021694
100.08626764074694
100.08629778722303
100.08644808694275
100.08716273642557
100.09036542929915
100.10374446322515
100.15543088680599
100.3399021495098
100.95003108900319
102.81389605639477
108.00038682481882
120.73422239962574
146.96599563224765
153.6649533408063
124.3027145865287
109.5423608454894
103.38475310841447
101.12658864092155
100.36729426399629
100.1271066472804
100.05446497190334
100.03323550815915
100.02719628759522
100.02551521706017
100.02505556696485
100.02493176199812
100.02489882707106
100.02489018548685
100.02488798363962
100.02488774193047
100.02488939197384
100.02489856494374
100.02494385805764
100.02515636593755
100.02610029987697
100.03003809199177
100.04539794536872
100.10148523090999
100.29402920972372
100.91580436274879
102.79231682111475
107.98910970436206
120.7294028672149
146.9643535117714
153.62191622914955
124.27890989100445
109.5231553556329
103.366593352443
101.10865148182748
100.34940221337732
100.10922509782593
100.03658535799931
100.01535628054337
100.00931715592293
100.00763610302558
100.00717646351457
100.00705264906823
100.00701972148664
100.00701108031322
100.00700892492392
100.00700888589509
100.00701146941185
100.00702468878208
100.00708611997632
100.00735682777072
100.00848436398458
100.01291468136722
100.02937790178129
100.08751656663256
100.28311425381071
100.90840872499462
102.78805102645431
107.98704553056865
120.72858189984677
146.96410370276791
153.60959981533603
124.27210579670118
109.51773797065083
103.36145078904829
101.10356526192012
100.34432614474784
100.10415131528885
100.03151186021732
100.0102829579024
100.00424383868155
100.00256279660466
100.00210315564867
100.00197934337116
100.0019464198413
100.00193778682754
100.00193568859684
100.00193589630656
100.00193953159848
100.00195684938424
100.00203275248509
100.00234843350765
100.0035959620204
100.008296488359
100.02526821668471
100.08418470985964
100.28072434785057
100.90691955794625
102.7872502962214
107.98667271515487
120.72842557615131
146.96403765918126
153.60618240567368
124.27025922892663
109.5162429518507
103.36002481132347
101.10214943458146
100.34291618192493
100.10274192061983
100.03010250645848
100.00887365633106
100.00283453604679
100.00115349670567
100.00069385486904
100.00057004429908
100.00053712330384
100.00052850546784
100.00052647201763
100.00052694735919
100.00053160506435
100.00055245851802
100.00063919892042
100.00098362755865
100.00229611085419
100.00712021395621
100.02428544435948
100.08344632601559
100.28023422627803
100.90663450139593
102.78710916296338
107.98661734553622
120.72842073450286
146.96402923187026
153.60513573570597
124.26977522751359
109.51583908061613
103.35963769100802
101.10176333769517
100.34253132933469
100.10235686915877
100.02971781719584
100.00848894570288
100.00244985064202
100.00076881121389
100.00030916929352
100.00018536006517
100.00015244287067
100.00014384205228
100.00014187566755
100.00014260189815
100.00014811124028
100.00017154057092
100.00026507335839
100.00062488229268
100.00196690182315
100.00683823366936
100.0240653586635
100.0832925042572
100.28013906537151
100.90658225624277
102.78708340135896
107.98660543352636
120.72840990126616
146.96404898380774
153.6049111480118
124.269662367579
109.51573727825391
103.35952622889808
101.10166041969654
100.34242822259397
100.1022534041232
100.02961438889263
100.00838547669123
100.00234638010704
100.00066533831468
100.00020569911624
100.00008189184842
100.00004897993595
100.00004039666702
100.00003849171601
100.00003942112328
100.00004553581189
100.0000705513361
100.00016767979655
100.00053445282207
100.0018878205413
100.00677448761844
100.02401876674233
100.08326190773995
100.28012087638734
100.90657329929488
102.78708003687494
107.98660549230027
120.72839381952225
146.96403645967297
153.60484049472274
124.26962252316167
109.5157092684426
103.35949617675561
101.10163277719813
100.34239968372368
100.10222594623444
100.029586828615
100.00835799847572
100.0023189035691
100.00063786349965
100.00017822955809
100.00005442784142
100.00002152447502
100.00001295926107
100.0000111045919
100.00001217635078
100.00001865862826
100.00004450640817
100.0001432588681
100.00051272097643
100.00186982698034
100.0067608581388
100.02400943392071
100.08325621712339
100.28011767622836
100.90657146019899
102.78707861161634
107.98660192160993
120.72841219411579
146.96403486171621
153.60483626869893
124.26962261900701
109.5156824738457
103.35949114242263
101.10162700800863
100.34239261896649
100.10221890676213
100.02957964110509
100.00835081198285
100.00231172084112
100.0006307039676
100.00017108887799
100.0000473059964
100.00001442136221
100.0000058786018
100.00000406379095
100.00000522384846
100.00001189896754
100.00003812242984
100.0001375051951
100.0005078662478
100.00186605447809
100.00675819245248
100.02400773325051
100.08325518192665
100.28011734630935
100.90657163504281
102.78707957753107
107.98659731579897
120.72840755099104
146.964032553743
153.60482157226954
124.2696210396071
109.51567687255232
103.35949005356088
101.10162229718736
100.34239092818085
100.10221683409945
100.02957787303365
100.00834909568503
100.00231006496367
100.00062912512458
100.00016958377036
100.00004586661728
100.00001303343976
100.00000453065252
100.00000275388533
100.00000396701604
100.00001073228879
100.00003710380312
100.00013670026865
100.00050732651087
100.00186580049093
100.00675820554231
100.02400797500256
100.08325554475518
100.28011772202424
100.9065719692065
102.78707907571939
107.98660616195208
120.72840453402473
146.96404179456394
153.60483965938423
124.26958499169571
109.5156861731338
103.35949481963202
101.10162258233181
100.34239117553382
100.10221673169926
100.02957794183051
100.00834938284082
100.00231066503153
100.00063002322011
100.00017074897146
100.00004724111709
100.00001455073348
100.00000613544162
100.00000441138917
100.0000056635016
100.00001247023616
100.00003889452886
100.00013855607705
100.00050925302136
100.00186779373207
100.00676025191589
100.02401003892116
100.08325770057591
100.28011998121563
100.90657449900618
102.7870794494529
107.98660505712952
120.72840295225174
146.96403581632237
153.6048566535133
124.2695910154851
109.51569065787793
103.35948693563644
101.10162336751941
100.34239123235437
100.10221838939357
100.02958053271682
100.0083530696791
100.0023155466312
100.00063600250152
100.00017761089951
100.00005471085797
100.00002238419178
100.00001415957192
100.00001252573597
100.00001381991247
100.00002065052347
100.00004709397841
100.0001467740232
100.00051748938452
100.00187604711974
100.00676852258188
100.02401831078771
100.08326595666844
100.28012821390845
100.90658235454897
102.78709064541063
107.98661109212927
120.72841630831061
146.96405368499683
153.60480128745112
124.26960026189144
109.51569693877214
103.35948754955754
101.1016271667466
100.34239670418748
100.1022273104287
100.0295935757281
100.00837083229177
100.0023377601631
100.00066188497479
100.00020608311188
100.00008475022831
100.00005324508996
100.00004539626786
100.00004391387472
100.0000452634901
100.00005211432457
100.00007856682124
100.00017825247487
100.00054897201876
100.00190753285091
100.00680000695498
100.02404982784172
100.08329754143817
100.28016000013378
100.90661377671444
102.78712244604552
107.98664593926382
120.72845492101817
146.96410774769822
153.6048261908251
124.26962058851835
109.51568536518955
103.35950011418282
101.10164281586245
100.34242607526035
100.10227169673249
100.02965548793568
100.00845043862273
100.00243244379476
100.00076748104611
100.00031838298123
100.00020059441275
100.00017071270871
100.0001635104622
100.0001622542064
100.00016367471707
100.0001705463292
100.00019700502057
100.00029669304895
100.0006674139237
100.00202597597637
100.0069184451711
100.02416824767221
100.0834159094703
100.28027810086958
100.90673266006321
102.78723863298933
107.98676406449927
120.72858064069457
146.96428220835287
153.60482919621782
124.26963781867128
109.51570901710647
103.35955381267821
101.10173310434745
100.34257034772482
100.1024814554376
100.02993443712406
100.00879042389096
100.00281775469655
100.0011811458914
100.00074718118798
100.00063635310295
100.00060923370832
100.00060298586958
100.00060202217958
100.00060352388039
100.00061041620421
100.00063688008294
100.00073656947299
100.00110729077821
100.00246585207336
100.00735833062471
100.02460815474004
100.08385588857182
100.28071803387658
100.90717303166689
102.78768189687557
107.98721731273018
120.72907870902064
146.9649572677886
153.6048622710804
124.26966037566395
109.51586057468626
103.35981868516366
101.10218808917823
100.34326202293563
100.10343454298624
100.03112962490654
100.01017102895796
100.00431662203556
100.00274382509616
100.00233936605227
100.00224021510527
100.00221708654179
100.00221204091456
100.00221140322792
100.00221298677373
100.00221989848446
100.00224636654843
100.00234605701893
100.00271677872509
100.00407534031058
100.00896781988565
100.02621765336895
100.08546540381056
100.28232821823465
100.90878406020484
102.78930108850282
107.98887135663645
120.73088878526119
146.96746530333837
153.60511395972145
124.27009784096961
109.51665854369857
103.36119561310389
101.10438384122409
100.34642013032433
100.10753051313266
100.03596983926315
100.01549615466622
100.0099067633261
100.008457337005
100.00810158797469
100.00801889288739
100.00800063371372
100.00799688692614
100.00799656717184
100.00799822085501
100.00800514855017
100.00803162062793
100.00813131233558
100.00850203428637
100.00986059937176
100.01475309235352
100.03200298333152
100.09125091275628
100.2881148061091
100.91457627647469
102.79511922566321
107.99481192200912
120.73738063974692
146.97642111433774
153.60610141418692
124.27221692552781
109.52057433353494
103.36785198870535
101.11446108443886
100.36002109280108
100.12405073600263
100.05443941121922
100.03504610206892
100.02996423952052
100.0287148625079
100.02842588418446
100.02836257826445
100.02834936939287
100.02834682355689
100.02834677609908
100.02834849069845
100.0283554285522
100.02838190289121
100.02848159145991
100.02885231925028
100.03021090459535
100.03510347343482
100.05235366252236
100.111603024337
100.30847241560951
100.93495912650933
102.81561244457893
108.01579021459301
120.76046314725512
147.0082161248522
153.61146191298945
124.28281780533074
109.53965243763085
103.39849307714563
101.15786633719028
100.41454929171137
100.18622213324755
100.12091280548859
100.10356625120222
100.09929065026148
100.09830684093164
100.098093410827
100.09804931175542
100.09804062388535
100.09803906982195
100.09803919942556
100.09804095789288
100.09804791260792
100.09807439503855
100.0981740912736
100.09854483800804
100.0999035167149
100.10479644798826
100.12204814900392
100.18130363205786
100.37819825610167
101.00478948456377
102.88588157909638
108.08789822763288
120.84017212870985
147.11795465235892
153.63785813265528
124.33365879803239
109.62719997834587
103.53006727252966
101.3302526880647
100.61597330834437
100.40427210946014
100.34701509639119
100.3328438775618
100.32959961838793
100.32890298801166
100.32876082892953
100.32873300114873
100.32872771318078
100.32872688138167
100.32872719260651
100.32872896316327
100.32873591729188
100.32876235639087
100.328862100601
100.32923299777892
100.33059216907355
100.33548695425024
100.35274596450132
100.41203010096591
100.60903753893592
101.23607324195338
103.11892645944542
108.32792160898735
121.10730999277305
147.48530881119322
153.761432641884
124.56372469209344
109.99921008657297
104.04462740009944
101.95073832926593
101.29819369362518
101.11719055590751
101.07208278320623
101.06180014229464
101.05961320434706
101.0591722239543
101.05908676821434
101.0590710899257
101.05906824735007
101.05906762376671
101.05906805026723
101.05906991681275
101.05907691923078
101.05910342901534
101.05920329671022
101.05957478864362
101.06093619307124
101.06584036406296
101.0831348917377
101.14255426680641
101.34007182531904
101.96901493858986
103.8589551632913
109.09409264887891
121.96773159446009
148.66601487263205
154.29968105945088
125.51698239336554
111.41688470234935
105.82840686742821
103.9511867797168
103.41099637435413
103.27477224904462
103.24378189359406
103.2372435470129
103.23593985522645
103.23569022114766
103.23564405438204
103.23563533590543
103.23563398897599
103.2356340869006
103.23563444973053
103.23563621075927
103.23564285180589
103.23566974239898
103.23577067010669
103.23614536393676
103.23751862566192
103.2424676612385
103.25993237882896
103.3199825996755
103.51979502095152
104.15690119145967
106.07514587400615
111.40603951016521
124.59324331808263
152.24889679889836
156.40548054981238
128.98369817666952
116.06079733186877
111.1703116364449
109.68251910642222
109.29931087185734
109.21186088636725
109.19348902444939
109.18984890601807
109.18915736569379
109.1890290001198
109.18900796390751
109.18900406783261
109.18900217055628
109.18900251500088
109.18900331569623
109.18900530915042
109.18901263161715
109.18904044198341
109.18914503078169
109.18953385490904
109.19096552081534
109.19612987340221
109.21438728054639
109.2772997235627
109.48717178422845
110.15840009358672
112.18694929033038
117.85266278446821
131.9981793614511
162.19180307210692
163.39140456616386
139.41245390203773
128.42612221734538
124.7889656717859
123.8139996983285
123.58820955485072
123.54056957484808
123.53112519068645
123.529339749905
123.5290105864083
123.52895246275263
123.52894019887218
123.52893835899515
123.52894003883303
123.528939687703
123.52893947062
123.52894009511287
123.52894977070106
123.52898382631368
123.52910792864034
123.52956978392538
123.53126966564207
123.53742163216344
123.55922108667038
123.63451203511524
123.88619431326613
124.69203881038847
127.12473441254136
133.8800350709997
150.50954662758744
186.06706388829076
182.56513765301537
162.38070908008925
155.04931427974606
152.9167279722706
152.40206502708634
152.2910309142652
152.26871541927534
152.2644537575634
152.26366345238716
152.26351860634966
152.26349805980882
152.26349154021116
152.26349158553373
152.2634910729625
152.26349160511737
152.26349185905795
152.26349676718937
152.263513559205
152.26356912565097
152.26378180169831
152.26457994896884
152.26749317097259
152.2779510766812
152.31464472640766
152.4397710380155
152.85085060295765
154.13524018366658
157.87588125444736
167.72083586041862
190.16621067289046
229.56311291156803
