# vtk DataFile Version 2.0
Unstructured Grid Example
ASCII
DATASET UNSTRUCTURED_GRID

POINTS 961 float
0.150000006 -0.00839745998 0
0.146666661 -0.00839745998 0
0.143333331 -0.00839745998 0
0.140000001 -0.00839745998 0
0.13666667 -0.00839745998 0
0.13333334 -0.00839745998 0
0.129999995 -0.00839745998 0
0.126666665 -0.00839745998 0
0.123333335 -0.00839745998 0
0.119999997 -0.00839745998 0
0.116666667 -0.00839745998 0
0.113333337 -0.00839745998 0
0.109999999 -0.00839745998 0
0.106666669 -0.00839745998 0
0.103333332 -0.00839745998 0
0.100000001 -0.00839745998 0
0.0966666639 -0.00839745998 0
0.0933333337 -0.00839745998 0
0.0900000036 -0.00839745998 0
0.086666666 -0.00839745998 0
0.0833333358 -0.00839745998 0
0.0799999982 -0.00839745998 0
0.0766666681 -0.00839745998 0
0.0733333305 -0.00839745998 0
0.0700000003 -0.00839745998 0
0.0666666701 -0.00839745998 0
0.0633333325 -0.00839745998 0
0.0599999987 -0.00839745998 0
0.0566666685 -0.00839745998 0
0.0533333346 -0.00839745998 0
0.0500000007 -0.00839745998 0
0.148333326 -0.0112842107 0
0.144999996 -0.0112842107 0
0.141666666 -0.0112842107 0
0.138333336 -0.0112842107 0
0.135000005 -0.0112842107 0
0.13166666 -0.0112842107 0
0.12833333 -0.0112842107 0
0.125 -0.0112842107 0
0.12166667 -0.0112842107 0
0.118333332 -0.0112842107 0
0.115000002 -0.0112842107 0
0.111666664 -0.0112842107 0
0.108333334 -0.0112842107 0
0.104999997 -0.0112842107 0
0.101666667 -0.0112842107 0
0.0983333364 -0.0112842107 0
0.0949999988 -0.0112842107 0
0.0916666687 -0.0112842107 0
0.088333331 -0.0112842107 0
0.0850000009 -0.0112842107 0
0.0816666633 -0.0112842107 0
0.0783333331 -0.0112842107 0
0.075000003 -0.0112842107 0
0.0716666654 -0.0112842107 0
0.0683333352 -0.0112842107 0
0.0649999976 -0.0112842107 0
0.0616666675 -0.0112842107 0
0.0583333336 -0.0112842107 0
0.0549999997 -0.0112842107 0
0.0516666658 -0.0112842107 0
0.0483333319 -0.0112842107 0
0.146666661 -0.0141709624 0
0.143333331 -0.0141709624 0
0.140000001 -0.0141709624 0
0.13666667 -0.0141709624 0
0.13333334 -0.0141709624 0
0.129999995 -0.0141709624 0
0.126666665 -0.0141709624 0
0.123333335 -0.0141709624 0
0.119999997 -0.0141709624 0
0.116666667 -0.0141709624 0
0.113333337 -0.0141709624 0
0.109999999 -0.0141709624 0
0.106666669 -0.0141709624 0
0.103333332 -0.0141709624 0
0.100000001 -0.0141709624 0
0.0966666639 -0.0141709624 0
0.0933333337 -0.0141709624 0
0.0900000036 -0.0141709624 0
0.086666666 -0.0141709624 0
0.0833333358 -0.0141709624 0
0.0799999982 -0.0141709624 0
0.0766666681 -0.0141709624 0
0.0733333305 -0.0141709624 0
0.0700000003 -0.0141709624 0
0.0666666701 -0.0141709624 0
0.0633333325 -0.0141709624 0
0.0599999987 -0.0141709624 0
0.0566666685 -0.0141709624 0
0.0533333346 -0.0141709624 0
0.0500000007 -0.0141709624 0
0.0466666669 -0.0141709624 0
0.144999996 -0.0170577131 0
0.141666666 -0.0170577131 0
0.138333336 -0.0170577131 0
0.135000005 -0.0170577131 0
0.13166666 -0.0170577131 0
0.12833333 -0.0170577131 0
0.125 -0.0170577131 0
0.12166667 -0.0170577131 0
0.118333332 -0.0170577131 0
0.115000002 -0.0170577131 0
0.111666664 -0.0170577131 0
0.108333334 -0.0170577131 0
0.104999997 -0.0170577131 0
0.101666667 -0.0170577131 0
0.0983333364 -0.0170577131 0
0.0949999988 -0.0170577131 0
0.0916666687 -0.0170577131 0
0.088333331 -0.0170577131 0
0.0850000009 -0.0170577131 0
0.0816666633 -0.0170577131 0
0.0783333331 -0.0170577131 0
0.075000003 -0.0170577131 0
0.0716666654 -0.0170577131 0
0.0683333352 -0.0170577131 0
0.0649999976 -0.0170577131 0
0.0616666675 -0.0170577131 0
0.0583333336 -0.0170577131 0
0.0549999997 -0.0170577131 0
0.0516666658 -0.0170577131 0
0.0483333319 -0.0170577131 0
0.0450000018 -0.0170577131 0
0.143333331 -0.0199444648 0
0.140000001 -0.0199444648 0
0.13666667 -0.0199444648 0
0.13333334 -0.0199444648 0
0.129999995 -0.0199444648 0
0.126666665 -0.0199444648 0
0.123333335 -0.0199444648 0
0.119999997 -0.0199444648 0
0.116666667 -0.0199444648 0
0.113333337 -0.0199444648 0
0.109999999 -0.0199444648 0
0.106666669 -0.0199444648 0
0.103333332 -0.0199444648 0
0.100000001 -0.0199444648 0
0.0966666639 -0.0199444648 0
0.0933333337 -0.0199444648 0
0.0900000036 -0.0199444648 0
0.086666666 -0.0199444648 0
0.0833333358 -0.0199444648 0
0.0799999982 -0.0199444648 0
0.0766666681 -0.0199444648 0
0.0733333305 -0.0199444648 0
0.0700000003 -0.0199444648 0
0.0666666701 -0.0199444648 0
0.0633333325 -0.0199444648 0
0.0599999987 -0.0199444648 0
0.0566666685 -0.0199444648 0
0.0533333346 -0.0199444648 0
0.0500000007 -0.0199444648 0
0.0466666669 -0.0199444648 0
0.043333333 -0.0199444648 0
0.141666666 -0.0228312165 0
0.138333336 -0.0228312165 0
0.135000005 -0.0228312165 0
0.13166666 -0.0228312165 0
0.12833333 -0.0228312165 0
0.125 -0.0228312165 0
0.12166667 -0.0228312165 0
0.118333332 -0.0228312165 0
0.115000002 -0.0228312165 0
0.111666664 -0.0228312165 0
0.108333334 -0.0228312165 0
0.104999997 -0.0228312165 0
0.101666667 -0.0228312165 0
0.0983333364 -0.0228312165 0
0.0949999988 -0.0228312165 0
0.0916666687 -0.0228312165 0
0.088333331 -0.0228312165 0
0.0850000009 -0.0228312165 0
0.0816666633 -0.0228312165 0
0.0783333331 -0.0228312165 0
0.075000003 -0.0228312165 0
0.0716666654 -0.0228312165 0
0.0683333352 -0.0228312165 0
0.0649999976 -0.0228312165 0
0.0616666675 -0.0228312165 0
0.0583333336 -0.0228312165 0
0.0549999997 -0.0228312165 0
0.0516666658 -0.0228312165 0
0.0483333319 -0.0228312165 0
0.0450000018 -0.0228312165 0
0.0416666679 -0.0228312165 0
0.140000001 -0.0257179681 0
0.13666667 -0.0257179681 0
0.13333334 -0.0257179681 0
0.129999995 -0.0257179681 0
0.126666665 -0.0257179681 0
0.123333335 -0.0257179681 0
0.119999997 -0.0257179681 0
0.116666667 -0.0257179681 0
0.113333337 -0.0257179681 0
0.109999999 -0.0257179681 0
0.106666669 -0.0257179681 0
0.103333332 -0.0257179681 0
0.100000001 -0.0257179681 0
0.0966666639 -0.0257179681 0
0.0933333337 -0.0257179681 0
0.0900000036 -0.0257179681 0
0.086666666 -0.0257179681 0
0.0833333358 -0.0257179681 0
0.0799999982 -0.0257179681 0
0.0766666681 -0.0257179681 0
0.0733333305 -0.0257179681 0
0.0700000003 -0.0257179681 0
0.0666666701 -0.0257179681 0
0.0633333325 -0.0257179681 0
0.0599999987 -0.0257179681 0
0.0566666685 -0.0257179681 0
0.0533333346 -0.0257179681 0
0.0500000007 -0.0257179681 0
0.0466666669 -0.0257179681 0
0.043333333 -0.0257179681 0
0.0399999991 -0.0257179681 0
0.138333336 -0.0286047198 0
0.135000005 -0.0286047198 0
0.13166666 -0.0286047198 0
0.12833333 -0.0286047198 0
0.125 -0.0286047198 0
0.12166667 -0.0286047198 0
0.118333332 -0.0286047198 0
0.115000002 -0.0286047198 0
0.111666664 -0.0286047198 0
0.108333334 -0.0286047198 0
0.104999997 -0.0286047198 0
0.101666667 -0.0286047198 0
0.0983333364 -0.0286047198 0
0.0949999988 -0.0286047198 0
0.0916666687 -0.0286047198 0
0.088333331 -0.0286047198 0
0.0850000009 -0.0286047198 0
0.0816666633 -0.0286047198 0
0.0783333331 -0.0286047198 0
0.075000003 -0.0286047198 0
0.0716666654 -0.0286047198 0
0.0683333352 -0.0286047198 0
0.0649999976 -0.0286047198 0
0.0616666675 -0.0286047198 0
0.0583333336 -0.0286047198 0
0.0549999997 -0.0286047198 0
0.0516666658 -0.0286047198 0
0.0483333319 -0.0286047198 0
0.0450000018 -0.0286047198 0
0.0416666679 -0.0286047198 0
0.038333334 -0.0286047198 0
0.13666667 -0.0314914696 0
0.13333334 -0.0314914696 0
0.129999995 -0.0314914696 0
0.126666665 -0.0314914696 0
0.123333335 -0.0314914696 0
0.119999997 -0.0314914696 0
0.116666667 -0.0314914696 0
0.113333337 -0.0314914696 0
0.109999999 -0.0314914696 0
0.106666669 -0.0314914696 0
0.103333332 -0.0314914696 0
0.100000001 -0.0314914696 0
0.0966666639 -0.0314914696 0
0.0933333337 -0.0314914696 0
0.0900000036 -0.0314914696 0
0.086666666 -0.0314914696 0
0.0833333358 -0.0314914696 0
0.0799999982 -0.0314914696 0
0.0766666681 -0.0314914696 0
0.0733333305 -0.0314914696 0
0.0700000003 -0.0314914696 0
0.0666666701 -0.0314914696 0
0.0633333325 -0.0314914696 0
0.0599999987 -0.0314914696 0
0.0566666685 -0.0314914696 0
0.0533333346 -0.0314914696 0
0.0500000007 -0.0314914696 0
0.0466666669 -0.0314914696 0
0.043333333 -0.0314914696 0
0.0399999991 -0.0314914696 0
0.0366666652 -0.0314914696 0
0.135000005 -0.0343782231 0
0.13166666 -0.0343782231 0
0.12833333 -0.0343782231 0
0.125 -0.0343782231 0
0.12166667 -0.0343782231 0
0.118333332 -0.0343782231 0
0.115000002 -0.0343782231 0
0.111666664 -0.0343782231 0
0.108333334 -0.0343782231 0
0.104999997 -0.0343782231 0
0.101666667 -0.0343782231 0
0.0983333364 -0.0343782231 0
0.0949999988 -0.0343782231 0
0.0916666687 -0.0343782231 0
0.088333331 -0.0343782231 0
0.0850000009 -0.0343782231 0
0.0816666633 -0.0343782231 0
0.0783333331 -0.0343782231 0
0.075000003 -0.0343782231 0
0.0716666654 -0.0343782231 0
0.0683333352 -0.0343782231 0
0.0649999976 -0.0343782231 0
0.0616666675 -0.0343782231 0
0.0583333336 -0.0343782231 0
0.0549999997 -0.0343782231 0
0.0516666658 -0.0343782231 0
0.0483333319 -0.0343782231 0
0.0450000018 -0.0343782231 0
0.0416666679 -0.0343782231 0
0.038333334 -0.0343782231 0
0.0350000001 -0.0343782231 0
0.13333334 -0.0372649729 0
0.129999995 -0.0372649729 0
0.126666665 -0.0372649729 0
0.123333335 -0.0372649729 0
0.119999997 -0.0372649729 0
0.116666667 -0.0372649729 0
0.113333337 -0.0372649729 0
0.109999999 -0.0372649729 0
0.106666669 -0.0372649729 0
0.103333332 -0.0372649729 0
0.100000001 -0.0372649729 0
0.0966666639 -0.0372649729 0
0.0933333337 -0.0372649729 0
0.0900000036 -0.0372649729 0
0.086666666 -0.0372649729 0
0.0833333358 -0.0372649729 0
0.0799999982 -0.0372649729 0
0.0766666681 -0.0372649729 0
0.0733333305 -0.0372649729 0
0.0700000003 -0.0372649729 0
0.0666666701 -0.0372649729 0
0.0633333325 -0.0372649729 0
0.0599999987 -0.0372649729 0
0.0566666685 -0.0372649729 0
0.0533333346 -0.0372649729 0
0.0500000007 -0.0372649729 0
0.0466666669 -0.0372649729 0
0.043333333 -0.0372649729 0
0.0399999991 -0.0372649729 0
0.0366666652 -0.0372649729 0
0.0333333351 -0.0372649729 0
0.13166666 -0.0401517227 0
0.12833333 -0.0401517227 0
0.125 -0.0401517227 0
0.12166667 -0.0401517227 0
0.118333332 -0.0401517227 0
0.115000002 -0.0401517227 0
0.111666664 -0.0401517227 0
[...]
POINT_DATA 961
SCALARS Temp float 1
LOOKUP_TABLE default
236.28722756486837
191.0203657008057
166.4236112380017
155.9148006465897
152.02314734109856
150.7139099526953
150.3009386213344
150.17646705137844
150.1402044515362
150.12991452960665
150.12705371034843
150.12627555973538
150.12606576006314
150.12600974059745
150.12599679229177
150.12599039068235
150.12598955562078
150.125987642765
150.1259898858179
150.12599032246803
150.1259928607104
150.12600897816952
150.12609070907337
150.1265761461462
150.12929844375103
150.14410680257555
150.22108413812055
150.59626004592644
152.24702929350696
158.33325297796577
176.11243404209014
191.02041319585416
151.96452036587164
133.61617485624927
126.24521291703444
123.61979065650534
122.7570991705796
122.48904211785205
122.4090879486234
122.38597271748704
122.37945268781718
122.37765056962228
122.37715963617077
122.3770279770239
122.37699331005159
122.37698224762178
122.37698147656545
122.37698126606821
122.3769817411989
122.3769811980997
122.37698222646344
122.37698880687752
122.37702430112552
122.37724201407636
122.37845830254533
122.38508857632135
122.41976639603166
122.59083318858482
123.36364572469613
126.39609684521055
136.0329926243227
158.33326685401434
166.42359648778043
133.616174936822
118.15862843105084
111.96324734280913
109.74705147108462
109.01414426086691
108.78498788244289
108.71626605758712
108.69630766444057
108.69065669712435
108.68909097561034
108.68866382846485
108.6885489733541
108.68851856964295
108.68851089481403
108.68850824775011
108.68850704176889
108.68850796224957
108.6885083380024
108.68851092387821
108.68852614967055
108.68861420828271
108.6891038148102
108.69175923686687
108.70558325636344
108.77362227079769
109.08294090970148
110.33314002676784
114.61415311627717
126.39608778052552
152.2470304867314
155.91478872340278
126.24521587135354
111.96325409476982
106.15565611041707
104.05825119777305
103.35987925467417
103.14042573634512
103.07436733377885
103.05512917330014
103.04967139056494
103.04815503489444
103.04774111755371
103.04762978478394
103.0475998635935
103.047592493124
103.04759045789572
103.04759024765133
103.04759006254349
103.04759100301527
103.04759676015289
103.04762939375784
103.04781240041258
103.04879139831408
103.05383243302049
103.07842904600987
103.1899920478223
103.64745501978881
105.29103699112757
110.33314484620071
123.36365463500036
150.59625470198426
152.02314644609598
123.61979535531289
109.74705675835935
104.05826020853554
101.99356871392669
101.30398538582651
101.08685611966247
101.02140657261798
101.00232702609836
100.99691017902578
100.99540462969104
100.99499347850845
100.99488285294959
100.9948535599383
100.9948457158848
100.99484361955766
100.9948433180677
100.9948435348058
100.99484556597221
100.99485723641534
100.99492128968289
100.99525942599435
100.99697793816631
101.00526910236627
101.04264972477966
101.19698847640169
101.76893832115672
103.6474533411321
109.08293995454807
122.59083077628385
150.22109038811868
150.71390644663944
122.75710969712567
109.01415326519832
103.35987220460885
101.30398330697201
100.61659920124984
100.40001847740267
100.33470607333732
100.31566107364303
100.31025264152224
100.30874927734922
100.30833869589935
100.30822817075011
100.30819885720398
100.30819113649694
100.30818919295825
100.30818876581363
100.30818933916514
100.30819324819772
100.30821448829279
100.30832552845578
100.30888157128527
100.31153135387075
100.32338983883402
100.37249874345542
100.55830322915698
101.19698834657551
103.1899925432917
108.77362596873432
122.41975339056918
150.14409825922357
150.3009343742642
122.48904948754728
108.78500270641018
103.14041554209169
101.08685392202554
100.40001824101702
100.18356666849948
100.11828534204552
100.0992477105271
100.0938411042438
100.09233819236121
100.09192772105024
100.09181727226047
100.09178790348349
100.09178018449408
100.09177823236821
100.09177794524298
100.09177908964833
100.09178585204538
100.09182079086256
100.09199331284343
100.0928054980306
100.09641249792442
100.1113640894612
100.1687614087026
100.37249859508549
101.0426490723047
103.07842742247516
108.70558066300312
122.3850858826735
150.12930777532466
150.1764719317488
122.40909575817155
108.71624142291196
103.0743589003769
101.0214054483203
100.33470647944877
100.11828530231318
100.05301096702911
100.03397487849134
100.0285686709047
100.02706584861043
100.02665539666748
100.02654494435363
100.02651559154037
100.0265078923425
100.026505953119
100.02650583382862
100.0265077972807
100.02651838137632
100.02657012021035
100.02681086356003
100.02787207762692
100.03227047008515
100.04933545298955
100.11136405108225
100.32338981000325
101.00526911592037
103.05383244110638
108.69175386357212
122.37844398608357
150.12656646614363
150.14019621066254
122.38598682904191
108.69628039236058
103.05512328485
101.00232703945264
100.3156608092452
100.09924774274728
100.03397495272904
100.0149391910419
100.00953306942563
100.00803026377373
100.00761982079686
100.00750936400628
100.00748001315617
100.00747232008594
100.00747043161451
100.0074705404315
100.00747354453163
100.00748859811388
100.00755801773703
100.00786193348912
100.00912078867843
100.0140445145632
100.0322704937272
100.09641247268783
100.31153123523252
100.99697783674152
103.04879004422358
108.68910497685854
122.3772453859862
150.12610579391688
150.12992099502833
122.37939776218884
108.69064525508189
103.04967085528475
100.99691225187306
100.3102527266107
100.09384127462779
100.02856868392401
100.00953306743372
100.00412695177656
100.0026241545087
100.00221371119059
100.00210325615919
100.00207390913788
100.0020662275199
100.00206440101607
100.002064786125
100.0020689483548
100.00208848606258
100.002173604975
100.00252591539224
100.00391271184208
100.00912078180241
100.02787206541274
100.09280550298621
100.30888157164419
100.99525949428052
103.047808703717
108.68860744887486
122.37701268061399
150.1259987066616
150.12709926977217
122.37761339965557
108.68908894362288
103.04815763855528
100.9954045239385
100.30874952525929
100.09233842207854
100.02706584584725
100.00803027103642
100.00262415395102
100.00112135892697
100.00071091519656
100.00060046142659
100.00057111772193
100.00056345286605
100.00056169822483
100.00056237788219
100.00056765683233
100.00059102817184
100.00068780341408
100.00107075412606
100.00252591731535
100.00786193605484
100.02681085277396
100.09199327784441
100.30832544236156
100.99492068904695
103.04762908120738
108.68852813261837
122.37699624844831
150.12598295604298
150.1262381146289
122.3771472640545
108.6886682195819
103.04774629029977
100.99499307201611
100.30833894669287
100.09192766039646
100.02665539986864
100.0076198061382
100.00221371123484
100.0007109160095
100.00030047221722
100.00019001981383
100.0001606804807
100.00015303425157
100.00015135344668
100.00015230672494
100.00015850841517
100.00018464898896
100.00028866100938
100.0006878044997
100.00217360658344
100.00755801398465
100.0265701375073
100.091820845471
100.30821479673358
100.99485677726092
103.04759557820627
108.68851160140414
122.37698228209065
150.12600249145004
150.12605927657037
122.37703653795286
108.6885601583459
103.04762883431792
100.99488317371534
100.30822880317174
100.09181721057288
100.02654498274765
100.00750935419124
100.00210325797478
100.00060046091721
100.0001900195967
100.00007956923562
100.00005023559322
100.00004260853403
100.00004099464869
100.00004216785108
100.00004902003828
100.00007684998378
100.00018464863099
100.0005910279541
100.00208848821647
100.00748858702245
100.02651837483617
100.09178583088577
100.30819310842558
100.9948453937275
103.04759065471067
108.68851090916495
122.37696333388246
150.12598973674886
150.12600231180897
122.3769985366432
108.68853074054894
103.04759730720941
100.99485361759308
100.30819852279886
100.09178788444316
100.0265155648528
100.00748000812787
100.00207391237512
100.00057111680785
100.00016068037397
100.00005023556889
100.00002091084777
100.00001330326577
100.00001174369594
100.00001306977833
100.00002031335812
100.00004901999918
100.00015850850866
100.00056765661033
100.00206894943534
100.00747354336804
100.02650781854574
100.09177917410004
100.30818919896129
100.99484310980608
103.04758893429283
108.6885068809014
122.37698405197914
150.12598826889254
150.1259986243469
122.37699614239183
108.68850484763792
103.04759156060264
100.99484714806388
100.308190945604
100.09178032427414
100.02650787524009
100.00747231868581
100.0020662269724
100.00056345265531
100.00015303438194
100.00004260850577
100.0000133032767
100.00000571967415
100.00000420286052
100.00000562297235
100.00001306976509
100.00004216779693
100.00015230656541
100.00056237797355
100.00206478531753
100.00747053137988
100.02650582848337
100.09177789934843
100.30818870974223
100.99484317054304
103.0475899468176
108.68850131241659
122.37697886228027
150.12598503319055
150.1259860188043
122.37699364423317
108.68849959454641
103.04759012742659
100.99484266170568
100.30818910726195
100.091778135828
100.0265059515255
100.00747043643169
100.00206439950514
100.00056169822862
100.00015135314854
100.00004099464529
100.00001174367671
100.0000042028601
100.00000272671673
100.00000420286331
100.00001174368032
100.000040994715
100.00015135328053
100.00056169792207
100.00206440257185
100.00747043119625
100.02650597812185
100.09177818441592
100.3081890298426
100.99484345958993
103.0475892953572
108.6885113402052
122.37697584024397
150.12599486600084
150.12599684459093
122.37695953009126
108.68850832853924
103.04759427559787
100.99484281502673
100.30818917641483
100.09177788892433
100.0265058478106
100.00747053089076
100.00206478724495
100.0005623788763
100.00015230651526
100.00004216791721
100.0000130697668
100.00000562297525
100.00000420286621
100.00000571968006
100.00001330325175
100.00004260852778
100.000153034144
100.00056345210575
100.00206622682815
100.00747231183436
100.02650787508311
100.09178018180934
100.3081911324622
100.99484588027615
103.04758911146614
108.68850966298633
122.3769730125875
150.1259891125539
150.1260133272756
122.37696714441795
108.68851228038126
103.04758723528668
100.9948433391163
100.30818898037886
100.09177906665707
100.0265078334078
100.00747353239103
100.0020689506325
100.00056765616154
100.0001585082612
100.0000490199879
100.00002031334712
100.00001306978452
100.00001174370063
100.00001330326747
100.00002091086645
100.00005023560347
100.00016068027392
100.00057111756428
100.00207391051131
100.00748001494829
100.02651557926114
100.09178787216493
100.30819879510805
100.99485309828721
103.04760018589961
108.68851501320016
122.37698711766149
150.1260095593142
150.1259672862876
122.3769772792544
108.68851771599547
103.04758728055634
100.99484585472742
100.30819278372654
100.09178581958834
100.02651835331442
100.00748858871307
100.00208849001523
100.0005910273571
100.00018464895317
100.00007684995519
100.0000490200252
100.00004216784659
100.00004099464611
100.00004260852987
100.00005023561447
100.00007956919666
100.00019001955258
100.00060046125499
100.00210325756875
100.00750936026112
100.02654496224004
100.0918173335193
100.30822850651568
100.99488239055698
103.04763012523529
108.68854852498002
122.37702644301793
150.12607169510258
150.12598939872822
122.37699272672461
108.68850477487176
103.04759535134978
100.99485589769486
100.3082144470939
100.091820904584
100.02657010344055
100.00755801916011
100.0021736052061
100.00068780366858
100.00028866097063
100.00018464894076
100.00015850843549
100.00015230677687
100.00015135345205
100.00015303425212
100.00016068049612
100.00019001976663
100.00030047240769
100.00071091546563
100.00221371317599
100.00761981000187
100.02665539159989
100.09192770199095
100.30833856287057
100.99499337628833
103.04773817097991
108.68865963849476
122.3771505583967
150.12627330866513
150.12598888390173
122.37700156685571
108.68851644726053
103.04762980433783
100.99491972973608
100.30832545002318
100.09199321684096
100.02681086142849
100.00786194290812
100.00252591532717
100.00107075532952
100.00068780346872
100.0005910281357
100.00056765676794
100.00056237783797
100.00056169824067
100.00056345298404
100.00057111766553
100.00060046144326
100.00071091529958
100.00112135876718
100.00262415551786
100.00803026309543
100.02706586990905
100.09233827165353
100.30874909617654
100.99540459286388
103.04815332380662
108.6890899029461
122.37764907922275
150.1270507956226
150.12599599853803
122.37698918261259
108.68860635130034
103.04780649979958
100.99525860959059
100.30888180216445
100.09280539679106
100.02787208446105
100.00912077768795
100.00391270917116
100.002525915142
100.0021736046671
100.00208848611325
100.00206894905975
100.00206478620683
100.00206440096716
100.00206622760155
100.00207390891866
100.00210325621315
100.00221371107497
100.00262415522064
100.00412695220926
100.00953306195176
100.02856868304798
100.0938411216121
100.31025282492136
100.99690982840625
103.04967065808644
108.69066029916458
122.3794593405424
150.12992996936188
150.1261259251279
122.37723469046695
108.68911410326011
103.04879004662315
100.99697870594855
100.31153128364612
100.09641258402648
100.03227054994785
100.0140445264272
100.00912080761272
100.0078619493204
100.00755803133558
100.00748861095025
100.00747355757078
100.00747055423885
100.00747044661328
100.0074723330417
100.00748002716853
100.00750937788311
100.00761983389087
100.00803027794534
100.00953307854213
100.0149392032348
100.03397489571769
100.09924757585209
100.31566082099972
101.00232599221674
103.05512601246294
108.69630314870675
122.3859532247221
150.1401905037059
150.1265626011989
122.3784616992394
108.69175509886206
103.0538322098563
101.00527052831345
100.32338972907017
100.11136422198375
100.0493355076553
100.03227051459096
100.02787212432358
100.02681090920898
100.02657016878375
100.02651843860224
100.02650784693164
100.0265058817387
100.02650600227973
100.02650793845382
100.02651564030415
100.02654499344706
100.0266554482712
100.02706589579442
100.02856871695622
100.0339749229211
100.0530109557343
100.11828538621418
100.33470585311262
101.02140591606141
103.07436550385917
108.71626451975692
122.40908535140538
150.17646532746036
150.12929434634214
122.38510143996018
108.7055779789797
103.0784287903337
101.04264886560883
100.37249888092653
100.16876159868744
100.111364156294
100.09641259402594
100.0928056058781
100.09199339584222
100.09182086589789
100.09178592795406
100.09177917412427
100.09177804262485
100.09177830713719
100.09178027262907
100.09178798987914
100.09181735154723
100.09192781163074
100.09233827615046
100.09384119013005
100.09924777229524
100.11828541762542
100.18356688368527
100.40001837627466
101.08685589914363
103.14042572601223
108.78498649110489
122.48903939958808
150.30093610124854
150.1441028704056
122.41974182925382
108.77361976544178
103.18999450772785
101.19698747139138
100.55830345007611
100.37249876612105
100.32338983230208
100.31153133669912
100.3088815470595
100.30832553882584
100.30821459034738
100.30819326887094
100.30818934047484
100.3081887768814
100.3081891804942
100.30819115083483
100.3081988740875
100.30822821282229
100.30833869459111
100.30874929923655
100.31025267579945
100.31566105042202
100.33470613476078
100.40001840779452
100.61659968624717
101.3039862902483
103.35988129292639
109.0141472637089
122.75709864856472
150.7139064735063
150.22109016840002
122.59081212386546
109.08293834471198
103.64745047320403
101.76893774105015
101.19698791441365
101.04264883547148
101.00526832679081
100.99697737448568
100.99525864301721
100.99492044670865
100.99485636578228
100.99484477904147
100.99484286631436
100.99484244936437
100.99484289125198
100.99484495973863
100.9948527376283
100.99488212037234
100.99499270384646
100.9954038576538
100.99690931451647
101.00232637321926
101.02140588423498
101.08685529357494
101.30398547213444
101.99357162770963
104.05825218275378
109.74704835343917
123.61978905709252
152.02315673726795
150.5962599736224
123.36365809299974
110.33315904854693
105.2910408767792
103.64746028873434
103.1899967999251
103.07843344265703
103.0538366380165
103.04879548797224
103.0478168638299
103.04763453411883
103.04760123222599
103.04759532717534
103.047594427209
103.04759454180717
103.04759491277498
103.04759695042608
103.0476045221958
103.04763407580046
103.04774562011502
103.04815960568473
103.04967561614347
103.055133537987
103.07437166315164
103.14043040729992
103.35988507803388
104.05825706993278
106.15565211912457
111.96323999877345
126.24519252334872
155.91478702638088
152.24703595225986
126.39610913176759
114.61416164713049
110.33315034445778
109.082950799644
108.77363075981812
108.70559217339618
108.69176955555857
108.68911304298331
108.68862310355883
108.68853440167305
108.6885198575594
108.68851801087582
108.68851656016356
108.68851655853925
108.68851744988643
108.68851973892556
108.68852777785474
108.68855810622424
108.68867292047226
108.68909950728266
108.69066655905037
108.69631690072119
108.71627446407851
108.78499765944528
109.0141534496419
109.74705510014944
111.9632478654689
118.1586212730649
133.61616369241088
166.42360812355543
158.3332658940862
136.03301213150377
126.39610097169442
123.36365364020062
122.59084101042883
122.41977307816795
122.38509448455785
122.37846336696686
122.3772496477018
122.37703395416676
122.3769956968171
122.37698857801536
122.37698746431906
122.37698859584839
122.37698812122521
122.3769884648321
122.37699001315262
122.37699940813923
122.37703522475294
122.37716690753307
122.37765691639298
122.37945897028592
122.38597969872245
122.40909633787884
122.48905136481658
122.75710547688388
123.61979130257448
126.24521113392927
133.61616638910428
151.96451567674055
191.0203653733361
176.112447305505
158.3332491967404
152.24703078468312
150.59626250198963
150.22108253654795
150.14410699674542
150.12930059249294
150.1265792693996
150.12609238219866
150.12600556499928
150.12599290307043
150.12599161976073
150.1259905658555
150.12598941270554
150.12599047140495
150.12599124798354
150.12599621906332
150.12601138010174
150.12606622378976
150.12627497243102
150.12705582604522
150.12991590445475
150.14020579024344
150.1764683389142
150.3009341275415
150.71390612803515
152.02314770405886
155.9147923855089
166.42359801204407
191.02035138476538
236.28693011593165
