# vtk DataFile Version 2.0
Unstructured Grid Example
ASCII
DATASET UNSTRUCTURED_GRID

POINTS 961 float
0.150000006 -0.00839745998 0
0.146666661 -0.00839745998 0
0.143333331 -0.00839745998 0
0.140000001 -0.00839745998 0
0.13666667 -0.00839745998 0
0.13333334 -0.00839745998 0
0.129999995 -0.00839745998 0
0.126666665 -0.00839745998 0
0.123333335 -0.00839745998 0
0.119999997 -0.00839745998 0
0.116666667 -0.00839745998 0
0.113333337 -0.00839745998 0
0.109999999 -0.00839745998 0
0.106666669 -0.00839745998 0
0.103333332 -0.00839745998 0
0.100000001 -0.00839745998 0
0.0966666639 -0.00839745998 0
0.0933333337 -0.00839745998 0
0.0900000036 -0.00839745998 0
0.086666666 -0.00839745998 0
0.0833333358 -0.00839745998 0
0.0799999982 -0.00839745998 0
0.0766666681 -0.00839745998 0
0.0733333305 -0.00839745998 0
0.0700000003 -0.00839745998 0
0.0666666701 -0.00839745998 0
0.0633333325 -0.00839745998 0
0.0599999987 -0.00839745998 0
0.0566666685 -0.00839745998 0
0.0533333346 -0.00839745998 0
0.0500000007 -0.00839745998 0
0.148333326 -0.0112842107 0
0.144999996 -0.0112842107 0
0.141666666 -0.0112842107 0
0.138333336 -0.0112842107 0
0.135000005 -0.0112842107 0
0.13166666 -0.0112842107 0
0.12833333 -0.0112842107 0
0.125 -0.0112842107 0
0.12166667 -0.0112842107 0
0.118333332 -0.0112842107 0
0.115000002 -0.0112842107 0
0.111666664 -0.0112842107 0
0.108333334 -0.0112842107 0
0.104999997 -0.0112842107 0
0.101666667 -0.0112842107 0
0.0983333364 -0.0112842107 0
0.0949999988 -0.0112842107 0
0.0916666687 -0.0112842107 0
0.088333331 -0.0112842107 0
0.0850000009 -0.0112842107 0
0.0816666633 -0.0112842107 0
0.0783333331 -0.0112842107 0
0.075000003 -0.0112842107 0
0.0716666654 -0.0112842107 0
0.0683333352 -0.0112842107 0
0.0649999976 -0.0112842107 0
0.0616666675 -0.0112842107 0
0.0583333336 -0.0112842107 0
0.0549999997 -0.0112842107 0
0.0516666658 -0.0112842107 0
0.0483333319 -0.0112842107 0
0.146666661 -0.0141709624 0
0.143333331 -0.0141709624 0
0.140000001 -0.0141709624 0
0.13666667 -0.0141709624 0
0.13333334 -0.0141709624 0
0.129999995 -0.0141709624 0
0.126666665 -0.0141709624 0
0.123333335 -0.0141709624 0
0.119999997 -0.0141709624 0
0.116666667 -0.0141709624 0
0.113333337 -0.0141709624 0
0.109999999 -0.0141709624 0
0.106666669 -0.0141709624 0
0.103333332 -0.0141709624 0
0.100000001 -0.0141709624 0
0.0966666639 -0.0141709624 0
0.0933333337 -0.0141709624 0
0.0900000036 -0.0141709624 0
0.086666666 -0.0141709624 0
0.0833333358 -0.0141709624 0
0.0799999982 -0.0141709624 0
0.0766666681 -0.0141709624 0
0.0733333305 -0.0141709624 0
0.0700000003 -0.0141709624 0
0.0666666701 -0.0141709624 0
0.0633333325 -0.0141709624 0
0.0599999987 -0.0141709624 0
0.0566666685 -0.0141709624 0
0.0533333346 -0.0141709624 0
0.0500000007 -0.0141709624 0
0.0466666669 -0.0141709624 0
0.144999996 -0.0170577131 0
0.141666666 -0.0170577131 0
0.138333336 -0.0170577131 0
0.135000005 -0.0170577131 0
0.13166666 -0.0170577131 0
0.12833333 -0.0170577131 0
0.125 -0.0170577131 0
0.12166667 -0.0170577131 0
0.118333332 -0.0170577131 0
0.115000002 -0.0170577131 0
0.111666664 -0.0170577131 0
0.108333334 -0.0170577131 0
0.104999997 -0.0170577131 0
0.101666667 -0.0170577131 0
0.0983333364 -0.0170577131 0
0.0949999988 -0.0170577131 0
0.0916666687 -0.0170577131 0
0.088333331 -0.0170577131 0
0.0850000009 -0.0170577131 0
0.0816666633 -0.0170577131 0
0.0783333331 -0.0170577131 0
0.075000003 -0.0170577131 0
0.0716666654 -0.0170577131 0
0.0683333352 -0.0170577131 0
0.0649999976 -0.0170577131 0
0.0616666675 -0.0170577131 0
0.0583333336 -0.0170577131 0
0.0549999997 -0.0170577131 0
0.0516666658 -0.0170577131 0
0.0483333319 -0.0170577131 0
0.0450000018 -0.0170577131 0
0.143333331 -0.0199444648 0
0.140000001 -0.0199444648 0
0.13666667 -0.0199444648 0
0.13333334 -0.0199444648 0
0.129999995 -0.0199444648 0
0.126666665 -0.0199444648 0
0.123333335 -0.0199444648 0
0.119999997 -0.0199444648 0
0.116666667 -0.0199444648 0
0.113333337 -0.0199444648 0
0.109999999 -0.0199444648 0
0.106666669 -0.0199444648 0
0.103333332 -0.0199444648 0
0.100000001 -0.0199444648 0
0.0966666639 -0.0199444648 0
0.0933333337 -0.0199444648 0
0.0900000036 -0.0199444648 0
0.086666666 -0.0199444648 0
0.0833333358 -0.0199444648 0
0.0799999982 -0.0199444648 0
0.0766666681 -0.0199444648 0
0.0733333305 -0.0199444648 0
0.0700000003 -0.0199444648 0
0.0666666701 -0.0199444648 0
0.0633333325 -0.0199444648 0
0.0599999987 -0.0199444648 0
0.0566666685 -0.0199444648 0
0.0533333346 -0.0199444648 0
0.0500000007 -0.0199444648 0
0.0466666669 -0.0199444648 0
0.043333333 -0.0199444648 0
0.141666666 -0.0228312165 0
0.138333336 -0.0228312165 0
0.135000005 -0.0228312165 0
0.13166666 -0.0228312165 0
0.12833333 -0.0228312165 0
0.125 -0.0228312165 0
0.12166667 -0.0228312165 0
0.118333332 -0.0228312165 0
0.115000002 -0.0228312165 0
0.111666664 -0.0228312165 0
0.108333334 -0.0228312165 0
0.104999997 -0.0228312165 0
0.101666667 -0.0228312165 0
0.0983333364 -0.0228312165 0
0.0949999988 -0.0228312165 0
0.0916666687 -0.0228312165 0
0.088333331 -0.0228312165 0
0.0850000009 -0.0228312165 0
0.0816666633 -0.0228312165 0
0.0783333331 -0.0228312165 0
0.075000003 -0.0228312165 0
0.0716666654 -0.0228312165 0
0.0683333352 -0.0228312165 0
0.0649999976 -0.0228312165 0
0.0616666675 -0.0228312165 0
0.0583333336 -0.0228312165 0
0.0549999997 -0.0228312165 0
0.0516666658 -0.0228312165 0
0.0483333319 -0.0228312165 0
0.0450000018 -0.0228312165 0
0.0416666679 -0.0228312165 0
0.140000001 -0.0257179681 0
0.13666667 -0.0257179681 0
0.13333334 -0.0257179681 0
0.129999995 -0.0257179681 0
0.126666665 -0.0257179681 0
0.123333335 -0.0257179681 0
0.119999997 -0.0257179681 0
0.116666667 -0.0257179681 0
0.113333337 -0.0257179681 0
0.109999999 -0.0257179681 0
0.106666669 -0.0257179681 0
0.103333332 -0.0257179681 0
0.100000001 -0.0257179681 0
0.0966666639 -0.0257179681 0
0.0933333337 -0.0257179681 0
0.0900000036 -0.0257179681 0
0.086666666 -0.0257179681 0
0.0833333358 -0.0257179681 0
0.0799999982 -0.0257179681 0
0.0766666681 -0.0257179681 0
0.0733333305 -0.0257179681 0
0.0700000003 -0.0257179681 0
0.0666666701 -0.0257179681 0
0.0633333325 -0.0257179681 0
0.0599999987 -0.0257179681 0
0.0566666685 -0.0257179681 0
0.0533333346 -0.0257179681 0
0.0500000007 -0.0257179681 0
0.0466666669 -0.0257179681 0
0.043333333 -0.0257179681 0
0.0399999991 -0.0257179681 0
0.138333336 -0.0286047198 0
0.135000005 -0.0286047198 0
0.13166666 -0.0286047198 0
0.12833333 -0.0286047198 0
0.125 -0.0286047198 0
0.12166667 -0.0286047198 0
0.118333332 -0.0286047198 0
0.115000002 -0.0286047198 0
0.111666664 -0.0286047198 0
0.108333334 -0.0286047198 0
0.104999997 -0.0286047198 0
0.101666667 -0.0286047198 0
0.0983333364 -0.0286047198 0
0.0949999988 -0.0286047198 0
0.0916666687 -0.0286047198 0
0.088333331 -0.0286047198 0
0.0850000009 -0.0286047198 0
0.0816666633 -0.0286047198 0
0.0783333331 -0.0286047198 0
0.075000003 -0.0286047198 0
0.0716666654 -0.0286047198 0
0.0683333352 -0.0286047198 0
0.0649999976 -0.0286047198 0
0.0616666675 -0.0286047198 0
0.0583333336 -0.0286047198 0
0.0549999997 -0.0286047198 0
0.0516666658 -0.0286047198 0
0.0483333319 -0.0286047198 0
0.0450000018 -0.0286047198 0
0.0416666679 -0.0286047198 0
0.038333334 -0.0286047198 0
0.13666667 -0.0314914696 0
0.13333334 -0.0314914696 0
0.129999995 -0.0314914696 0
0.126666665 -0.0314914696 0
0.123333335 -0.0314914696 0
0.119999997 -0.0314914696 0
0.116666667 -0.0314914696 0
0.113333337 -0.0314914696 0
0.109999999 -0.0314914696 0
0.106666669 -0.0314914696 0
0.103333332 -0.0314914696 0
0.100000001 -0.0314914696 0
0.0966666639 -0.0314914696 0
0.0933333337 -0.0314914696 0
0.0900000036 -0.0314914696 0
0.086666666 -0.0314914696 0
0.0833333358 -0.0314914696 0
0.0799999982 -0.0314914696 0
0.0766666681 -0.0314914696 0
0.0733333305 -0.0314914696 0
0.0700000003 -0.0314914696 0
0.0666666701 -0.0314914696 0
0.0633333325 -0.0314914696 0
0.0599999987 -0.0314914696 0
0.0566666685 -0.0314914696 0
0.0533333346 -0.0314914696 0
0.0500000007 -0.0314914696 0
0.0466666669 -0.0314914696 0
0.043333333 -0.0314914696 0
0.0399999991 -0.0314914696 0
0.0366666652 -0.0314914696 0
0.135000005 -0.0343782231 0
0.13166666 -0.0343782231 0
0.12833333 -0.0343782231 0
0.125 -0.0343782231 0
0.12166667 -0.0343782231 0
0.118333332 -0.0343782231 0
0.115000002 -0.0343782231 0
0.111666664 -0.0343782231 0
0.108333334 -0.0343782231 0
0.104999997 -0.0343782231 0
0.101666667 -0.0343782231 0
0.0983333364 -0.0343782231 0
0.0949999988 -0.0343782231 0
0.0916666687 -0.0343782231 0
0.088333331 -0.0343782231 0
0.0850000009 -0.0343782231 0
0.0816666633 -0.0343782231 0
0.0783333331 -0.0343782231 0
0.075000003 -0.0343782231 0
0.0716666654 -0.0343782231 0
0.0683333352 -0.0343782231 0
0.0649999976 -0.0343782231 0
0.0616666675 -0.0343782231 0
0.0583333336 -0.0343782231 0
0.0549999997 -0.0343782231 0
0.0516666658 -0.0343782231 0
0.0483333319 -0.0343782231 0
0.0450000018 -0.0343782231 0
0.0416666679 -0.0343782231 0
0.038333334 -0.0343782231 0
0.0350000001 -0.0343782231 0
0.13333334 -0.0372649729 0
0.129999995 -0.0372649729 0
0.126666665 -0.0372649729 0
0.123333335 -0.0372649729 0
0.119999997 -0.0372649729 0
0.116666667 -0.0372649729 0
0.113333337 -0.0372649729 0
0.109999999 -0.0372649729 0
0.106666669 -0.0372649729 0
0.103333332 -0.0372649729 0
0.100000001 -0.0372649729 0
0.0966666639 -0.0372649729 0
0.0933333337 -0.0372649729 0
0.0900000036 -0.0372649729 0
0.086666666 -0.0372649729 0
0.0833333358 -0.0372649729 0
0.0799999982 -0.0372649729 0
0.0766666681 -0.0372649729 0
0.0733333305 -0.0372649729 0
0.0700000003 -0.0372649729 0
0.0666666701 -0.0372649729 0
0.0633333325 -0.0372649729 0
0.0599999987 -0.0372649729 0
0.0566666685 -0.0372649729 0
0.0533333346 -0.0372649729 0
0.0500000007 -0.0372649729 0
0.0466666669 -0.0372649729 0
0.043333333 -0.0372649729 0
0.0399999991 -0.0372649729 0
0.0366666652 -0.0372649729 0
0.0333333351 -0.0372649729 0
0.13166666 -0.0401517227 0
0.12833333 -0.0401517227 0
0.125 -0.0401517227 0
0.12166667 -0.0401517227 0
0.118333332 -0.0401517227 0
0.115000002 -0.0401517227 0
0.111666664 -0.0401517227 0
[...]
POINT_DATA 961
SCALARS Temp float 1
LOOKUP_TABLE default
259.4652944161738
211.9144842863796
182.94311592910552
168.50251994542793
162.21840228926516
159.7563298458207
158.86509729538184
158.56121878115633
158.46228974344024
158.43124256772373
158.42178349044295
158.41897507235936
158.41815740023944
158.41792339918192
158.41785897800847
158.41783850976898
158.41783370059164
158.41783102668145
158.4178329800768
158.41783541833567
158.41784901954932
158.41792347420716
158.41830570237457
158.42026587333496
158.42986377011448
158.47450791725757
158.66826485571497
159.43288458112065
162.07501390527864
169.71871722965489
188.04682442930263
211.9145315111086
169.9871322046618
147.29436460221737
136.5995404112296
132.13500291007918
130.43707391075486
129.83529208173053
129.63323343455667
129.56821019801538
129.54798856536553
129.541874409456
129.54006794099362
129.53954495249158
129.53939625522113
129.53935281337635
129.53934271735227
129.53933999543145
129.53933976312948
129.539340143799
129.53934630035553
129.5393801657214
129.53955683130997
129.54047445889722
129.54500527066574
129.56636177181213
129.66094914017245
130.04625933056823
131.44674889022906
135.81838821051286
147.10675983191905
169.71873284630266
182.94309579839398
147.29436162640897
128.138139650102
119.17706359441377
115.43738858531157
114.01018644926984
113.50183215070962
113.3302600360136
113.27478252756899
113.25745658106551
113.25220030717253
113.25064280265018
113.25019061365042
113.25006179725426
113.25002580457586
113.25001520932898
113.25001178142129
113.2500125663747
113.25001503169177
113.2500293332929
113.2501053405413
113.25049602765414
113.25242953372793
113.26158650719206
113.3025191713866
113.47218649895652
114.10899505137672
116.21034068608742
122.11938303155236
135.81837881034207
162.07501668507862
168.5025018136822
136.59953983171832
119.17707087942338
110.91783064509306
107.43456810103285
106.09393739677184
105.61320274581034
105.45009398022171
105.39713503495229
105.38054259543752
105.37549394879625
105.37399512559368
105.37355932482232
105.37343439232325
105.37339990519183
105.37339023871756
105.37338805681837
105.37338815261093
105.37339365855613
105.3734237381931
105.37357766961526
105.3743410865397
105.37794998928656
105.39411933928292
105.46173674227396
105.72075240983935
106.60992488461477
109.28620485678032
116.21034737882319
131.4467587452254
159.43287813387997
162.2183962838414
132.135006044736
115.43739366701803
107.43458221527916
104.03497894992218
102.72020146874065
102.2471585482068
102.08627794279195
102.03395240435793
102.01753724681797
102.01253788759163
102.01105253812682
102.01062040983331
102.0104970433355
102.01046214427154
102.0104524098178
102.01045041251835
102.01045184225958
102.01046293035036
102.01052035740578
102.01080291558667
102.01213296561366
102.01808334530158
102.04306196441387
102.14000769404667
102.48238052508584
103.56661834520605
106.60992243030294
114.10899352846496
130.04625657852517
158.66827146579502
159.75632343189176
130.43708618315597
114.01019893059951
106.09392670646598
102.7201981736495
101.41282297148372
100.94184632147831
100.78153355543417
100.72936277458524
100.71298895957531
100.70800080819588
100.70651847756302
100.70608705628443
100.7059638662769
100.70592919420548
100.70591977869597
100.7059178602743
100.70592116815786
100.70594132073515
100.70604043804354
100.70650501505784
100.70857505492016
100.71727106488372
100.75131170790353
100.87405410393859
101.27788011907232
102.48238026461632
105.72075302768681
113.47219106355732
129.66093454684204
158.47449924461566
158.86509405928385
129.8353002581612
113.50185103735697
105.61318842842113
102.24715506905804
100.94184588989849
100.47141288198146
100.31124289195894
100.25910906142154
100.24274490598978
100.23775927865908
100.23627760219307
100.23584644689029
100.23572318726967
100.2356885354361
100.23567921052303
100.23567794738021
100.23568413391808
100.23571733132859
100.23587246048385
100.23656038722208
100.23944754011144
100.25081381037394
100.292444583177
100.43347687165192
100.87405378599497
102.14000649438765
105.46173415995906
113.30251620836412
129.56635904005014
158.42987320471437
158.56122432658466
129.6332436041497
113.33022920823286
105.4500822316324
102.08627621466601
100.78153435067797
100.31124278749748
100.151108191265
100.098983014546
100.08262112708636
100.07763605204214
100.07615451164722
100.07572338039776
100.07560016348236
100.07556558361283
100.07555640467211
100.07555602320687
100.07556613753171
100.07561587388174
100.07583601261214
100.07675822149072
100.08040273046927
100.09391424935308
100.14075140101468
100.29244449356352
100.75131162944865
102.04306200241693
105.39411942823516
113.2615794353726
129.5449896109217
158.42025611332195
158.46228352551324
129.5682275958981
113.27474999487839
105.39712663290554
102.03395235137585
100.72936213297506
100.25910909860505
100.09898319795931
100.04686005728482
100.03049869099931
100.02551373414673
100.02403223647404
100.02360110042456
100.02347789657904
100.02344336760285
100.02343445693344
100.0234352213035
100.0234500808055
100.0235181693927
100.02380339677492
100.02493375151133
100.02916512803881
100.04410700837452
100.09391430802405
100.25081375584712
100.71727083955479
102.0180831352541
105.37794810160489
113.25243124913447
129.5404785294477
158.4183219854435
158.43125530943064
129.54793032292795
113.25744266491151
105.38054167442829
102.0175405647756
100.71298905910346
100.24274527227726
100.08262115218066
100.0304986851553
100.01413740128777
100.0091524863802
100.00767099275498
100.0072398641844
100.00711668069432
100.00708222246503
100.00707363726093
100.00707572644622
100.00709562293704
100.0071813329725
100.00752229268463
100.00880893332423
100.01342207829077
100.02916510798026
100.08040270160124
100.23944754953475
100.70857504850852
102.01213307582354
105.37433555216573
113.25048758517353
129.53954381474665
158.4179134446404
158.42183279008577
129.5418342083703
113.25219693663061
105.37549725279787
102.01253735802376
100.70800125653524
100.23775978978671
100.07763605021682
100.02551375610219
100.00915248507032
100.00416758059512
100.0026860871369
100.002254965636
100.00213180307618
100.00209743616031
100.00208921265958
100.00209265464245
100.00211721802526
100.00221752144536
100.0025991695658
100.00398528806568
100.00880893974995
100.0249337587158
100.07675819288805
100.2365603055884
100.70650484168833
102.01080198549519
105.37357723463737
113.25010787680979
129.53938783825853
158.41783782740166
158.41893220341436
129.54005168837568
113.25064700255184
105.37400214026434
102.01105175446297
100.70651897691563
100.23627745987527
100.07615452613844
100.02403219539224
100.00767099303232
100.00268608999254
100.00120459789461
100.00077348448929
100.00065034747757
100.00061607891524
100.00060821284687
100.00061286744332
100.00064118137888
100.00075187772624
100.00115893155477
100.00259917330874
100.00752229763327
100.02380338665498
100.07583605927924
100.23587259562868
100.70604106727185
102.01051954217797
105.3734219236165
113.25002999827065
129.53934657719637
158.41784819910944
158.41814703272365
129.53955195741617
113.25020418505046
105.3735575013117
102.01062102343998
100.70608834864332
100.2358463352212
100.07572348140957
100.02360107357944
100.0072398699164
100.00225496383173
100.00077348370766
100.00034238283858
100.00021927752985
100.00018510695061
100.00017755496901
100.00018316092556
100.00021408790735
100.00033116316813
100.00075187635488
100.00221752067509
100.00718133976028
100.02351813812676
100.07561585681357
100.23571727737928
100.70594105084957
102.01046261941029
105.37339309568264
113.25001830316566
129.53932087878823
158.4178339465103
158.41791365852586
129.53940113462932
113.25007682436178
105.37343080394629
102.01049732533255
100.70596320277342
100.23572315482295
100.07560009182508
100.02347788241086
100.00711669087842
100.00213180003134
100.00065034711025
100.00021927743074
100.00009621953507
100.00006214607964
100.00005484444593
100.00006110618946
100.00009361617073
100.00021408775277
100.00064118172882
100.00211721728475
100.00709562655419
100.0234500777902
100.07556619270902
100.23568432625589
100.70592087624294
102.01045108239774
105.37338647586516
113.25001178320358
129.539342550542
158.41783137779063
158.41786080996428
129.5393683317962
113.25001838591963
105.37339898087329
102.01046470587407
100.70592884660057
100.23568884885937
100.07556554331332
100.02344336402615
100.00708222068158
100.00209743555251
100.00061607940174
100.00018510684008
100.0000621461273
100.00002818881673
100.00002108361157
100.00002775294617
100.00006110613327
100.00018316070499
100.00061286685465
100.00209265494533
100.00707572381687
100.02343519507126
100.07555600720413
100.23567784477953
100.70591774941283
102.01045018753983
105.37338773171975
113.25000426334364
129.53933728277306
158.417828320548
158.41783514697943
129.53935711935796
113.2500053162594
105.37338999359015
102.01045062477691
100.70591961811108
100.23567897754953
100.0755564026205
100.02343447098536
100.00707363292248
100.00208921271698
100.00060821171172
100.00017755495703
100.00005484436169
100.00002108360987
100.00001416451423
100.0000210836247
100.00005484438033
100.00017755523406
100.00060821221902
100.00208921166654
100.00707364218415
100.02343445572522
100.07555646876699
100.2356791008454
100.70591946813454
102.01045211070267
105.37338859422091
113.25001883753275
129.53933626679083
158.41784279996475
158.41784454123882
129.53931730809904
113.25001377957193
105.37339399971528
102.01044956089817
100.70591866731117
100.23567783305482
100.07555606296364
100.02343519411579
100.00707573024354
100.00209265800963
100.00061286667747
100.0001831611934
100.00006110614193
100.00002775295948
100.00002108363765
100.00002818884361
100.00006214602
100.00018510692675
100.00061607851444
100.00209743352579
100.00708222014761
100.02344334348656
100.07556554229728
100.23568853093276
100.70592918286852
102.01046238660574
105.37339470645838
113.25002430634277
129.53934196580786
158.4178512772466
158.41785847022086
129.53932406429954
113.25001791811007
105.3733834960594
102.010451518048
100.7059204407667
100.2356840961747
100.07556623164442
100.02345004705538
100.00709563008652
100.00211721565174
100.00064118081552
100.00021408769479
100.0000936161224
100.00006110621723
100.00005484446538
100.00006214608797
100.00009621961453
100.0002192775704
100.00065034673283
100.00213180255228
100.00711668517283
100.02347790191888
100.0756001318986
100.23572311345892
100.70596372591604
102.01049630038727
105.37343467065872
113.2500572429601
129.53938937751613
158.41792350702866
158.41780721884913
129.5393345644783
113.25002615774271
105.37338815644945
102.01046344969365
100.70594043988442
100.23571726164586
100.075615798237
100.0235181429189
100.00718134503006
100.00221751860381
100.00075187755351
100.0003311630486
100.00021408785064
100.00018316090976
100.00017755495841
100.0001851069311
100.00021927761588
100.0003423826825
100.0007734835226
100.00225496505607
100.0072398685655
100.02360109053178
100.07572342752339
100.23584659164023
100.70608771927449
102.01061955795512
105.37355990050985
113.25019011709237
129.53954361238291
158.41816431162852
158.41783270721197
129.53935735145055
113.25002107069808
105.37342197783444
102.01051804981083
100.706040383456
100.23587272030045
100.07583597106424
100.02380340034702
100.00752229299249
100.00259917048636
100.00115893136805
100.00075187753112
100.00064118147125
100.00061286762744
100.00060821286685
100.00061607892327
100.00065034753123
100.00077348431152
100.0012045985939
100.00268608816208
100.00767099888242
100.02403220580814
100.07615449666163
100.23627754787668
100.70651821322495
102.01105230541135
105.37399075605276
113.25063764205551
129.54005835831583
158.41897333069835
158.41784472794134
129.53939420769257
113.25009389909212
105.37357840167242
102.01080032870753
100.70650484905354
100.23656014951058
100.07675821509568
100.02493377722149
100.00880893346115
100.00398529219196
100.00259916966695
100.00221752129991
100.00211721783927
100.002092654478
100.00208921271013
100.00209743654027
100.0021318028745
100.00225496569024
100.00268608752938
100.00416757995946
100.00915248949838
100.02551373234218
100.07763610642341
100.23775945611787
100.70800043796042
102.01253788446031
105.37549151691584
113.25219925601789
129.54187312240126
158.42178022707952
158.4179128258715
129.539518858007
113.25048682670857
105.37433205393157
102.01213147608803
100.7085754696491
100.23944730788494
100.08040274810396
100.0291650953119
100.01342206995884
100.0088089324445
100.00752229161495
100.00718133325276
100.00709562503643
100.00707572669589
100.00707363712867
100.00708222262296
100.00711668009524
100.00723986441908
100.00767099229695
100.00915248857142
100.01413740237422
100.03049866809661
100.08262115519466
100.24274495315554
100.71298933331998
102.01753671048084
105.38054171575183
113.25746118672582
129.54799632437613
158.43125880590998
158.41834413733295
129.54046754719047
113.25244248792019
105.37794802761441
102.01808468495325
100.71727092883191
100.25081402592261
100.09391445428349
100.04410704225073
100.02916518372778
100.02493379608181
100.02380343556867
100.02351820640204
100.02345011774801
100.02343526054732
100.02343449930324
100.0234434045661
100.02347793660539
100.02360113993751
100.02403227372146
100.02551377394043
100.03049871555481
100.04686009223609
100.09898306568194
100.25910875370364
100.72936230177463
102.03395059106253
105.39713024859483
113.27477669009663
129.5681885851844
158.46227477810172
158.42025069153874
129.54500879910822
113.2615805895766
105.39411919398182
102.04306449648281
100.75131152586908
100.29244489407998
100.14075153780628
100.09391436228321
100.08040285116223
100.07675833793502
100.07583613780406
100.07561601869351
100.07556626429819
100.07555614598921
100.07555652944114
100.07556570281835
100.07560028838786
100.07572350577811
100.07615464321265
100.077636172221
100.0826212426826
100.09898312913602
100.15110817636074
100.3112430085919
100.78153315999613
102.08627687383486
105.45009127395359
113.33025829413067
129.63322970394373
158.56121626678024
158.42985837174467
129.56637554825318
113.3025129520984
105.46173647219561
102.1400061435811
100.87405439403975
100.43347729643173
100.29244473005242
100.25081403872987
100.23944777990208
100.23656057748482
100.23587263519376
100.23571750131384
100.23568432538472
100.23567816557414
100.23567938232152
100.23568873706897
100.23572338326626
100.23584662871777
100.23627780505655
100.23775946850515
100.24274510177025
100.25910919924128
100.31124306340631
100.47141339174148
100.94184612137376
102.24715826456608
105.61320277732773
113.50183008704404
129.8352885235234
158.86509608425857
158.47450493776668
129.66092187187826
113.47218349344323
105.72075587978098
102.48237876876435
101.27788053799443
100.87405411497537
100.75131168080371
100.71727104084651
100.7085750054394
100.70650504162043
100.70604062092696
100.70594136013129
100.70592117457781
100.70591787500254
100.70591976633675
100.70592922163135
100.70596389812437
100.70608713551971
100.70651847533502
100.70800084943843
100.71298902223731
100.72936274117288
100.78153370484732
100.94184615369772
101.41282385917208
102.72020306071369
106.09394043319965
114.0101906031944
130.43707420905318
159.75632460864682
158.6682715926908
130.04623620013686
114.10899142204053
106.60991772420742
103.56661731219508
102.48237956758759
102.14000610081412
102.04306065434325
102.01808231353539
102.0121316180536
102.01080146813987
102.0105188223584
102.0104615607438
102.01045064874074
102.01044892267701
102.01045113962023
102.01046081803597
102.01049562418704
102.01061910775539
102.01105119390498
102.01253653552075
102.01753575517671
102.03395125545657
102.08627679884661
102.2471571882102
102.72020168032681
104.0349836299664
107.43456999316008
115.43738267486064
132.13499907786826
162.21840705059577
159.43288415367365
131.4467636797215
116.2103656610865
109.28621063559049
106.60993305110061
105.72075942728648
105.46174334114178
105.39412575062376
105.37795617785234
105.37434780869154
105.37358519946147
105.37343047574095
105.37340019778568
105.37339468964535
105.37339458808866
105.37339691561077
105.37340659928775
105.37344134718404
105.37356580603698
105.37400187448466
105.37550076851046
105.38054904219418
105.39714160106507
105.45010045558365
105.61320976485763
106.09394595136409
107.43457737492757
110.91782466151273
119.17705375311532
136.59951585824723
168.50250271034082
162.07502273553973
135.81840310626225
122.11939342596189
116.21035433112715
114.10900788828933
113.47219726007783
113.30253065493622
113.26159934103258
113.25244129246397
113.25050734133897
113.25011586197773
113.250040706219
113.25002715363607
113.2500236157317
113.25002377837663
113.25002685722701
113.25003709415684
113.25007340046155
113.25020221941894
113.25065429925075
113.25221125560144
113.25746894889453
113.27479425569578
113.33027088877837
113.50184437061421
114.01019837767801
115.4373909691567
119.17706212357795
128.13812970073323
147.29434863691716
182.94310763043106
169.7187325811917
147.10678078257925
135.81839226116512
131.44675811822677
130.04626738692698
129.660956334325
129.56636841387828
129.54501105026617
129.54048259602314
129.53956672320925
129.53938771122873
129.5393532964862
129.53934696090428
129.53934725366747
129.53934742443303
129.53935027328203
129.53936106989153
129.5394030277333
129.5395527061505
129.54007570678758
129.54188148354388
129.5479954687831
129.568217734027
129.63324234707264
129.83530165089414
130.43708144304318
132.1350015153698
136.5995338642286
147.29434981587417
169.9871195246883
211.91447129701652
188.04683883192328
169.71871319346673
162.07501629452793
159.43288722303458
158.66826331419068
158.47450816839077
158.4298654639313
158.4202684560454
158.41830716402845
158.4179206572383
158.4178490361376
158.41783640275727
158.41783349575763
158.41783250002837
158.4178344566547
158.41783923307185
158.41785846991115
158.41792473475695
158.41815774203351
158.41897456244857
158.42178523103897
158.43124372170487
158.46229094537122
158.56121992174212
158.86509370033966
159.75632331261139
162.2183980363387
168.50250580340975
182.94309442032758
211.9144558514224
259.4649605552353
