# vtk DataFile Version 2.0
Unstructured Grid Example
ASCII
DATASET UNSTRUCTURED_GRID

POINTS 961 float
0.150000006 -0.00839745998 0
0.146666661 -0.00839745998 0
0.143333331 -0.00839745998 0
0.140000001 -0.00839745998 0
0.13666667 -0.00839745998 0
0.13333334 -0.00839745998 0
0.129999995 -0.00839745998 0
0.126666665 -0.00839745998 0
0.123333335 -0.00839745998 0
0.119999997 -0.00839745998 0
0.116666667 -0.00839745998 0
0.113333337 -0.00839745998 0
0.109999999 -0.00839745998 0
0.106666669 -0.00839745998 0
0.103333332 -0.00839745998 0
0.100000001 -0.00839745998 0
0.0966666639 -0.00839745998 0
0.0933333337 -0.00839745998 0
0.0900000036 -0.00839745998 0
0.086666666 -0.00839745998 0
0.0833333358 -0.00839745998 0
0.0799999982 -0.00839745998 0
0.0766666681 -0.00839745998 0
0.0733333305 -0.00839745998 0
0.0700000003 -0.00839745998 0
0.0666666701 -0.00839745998 0
0.0633333325 -0.00839745998 0
0.0599999987 -0.00839745998 0
0.0566666685 -0.00839745998 0
0.0533333346 -0.00839745998 0
0.0500000007 -0.00839745998 0
0.148333326 -0.0112842107 0
0.144999996 -0.0112842107 0
0.141666666 -0.0112842107 0
0.138333336 -0.0112842107 0
0.135000005 -0.0112842107 0
0.13166666 -0.0112842107 0
0.12833333 -0.0112842107 0
0.125 -0.0112842107 0
0.12166667 -0.0112842107 0
0.118333332 -0.0112842107 0
0.115000002 -0.0112842107 0
0.111666664 -0.0112842107 0
0.108333334 -0.0112842107 0
0.104999997 -0.0112842107 0
0.101666667 -0.0112842107 0
0.0983333364 -0.0112842107 0
0.0949999988 -0.0112842107 0
0.0916666687 -0.0112842107 0
0.088333331 -0.0112842107 0
0.0850000009 -0.0112842107 0
0.0816666633 -0.0112842107 0
0.0783333331 -0.0112842107 0
0.075000003 -0.0112842107 0
0.0716666654 -0.0112842107 0
0.0683333352 -0.0112842107 0
0.0649999976 -0.0112842107 0
0.0616666675 -0.0112842107 0
0.0583333336 -0.0112842107 0
0.0549999997 -0.0112842107 0
0.0516666658 -0.0112842107 0
0.0483333319 -0.0112842107 0
0.146666661 -0.0141709624 0
0.143333331 -0.0141709624 0
0.140000001 -0.0141709624 0
0.13666667 -0.0141709624 0
0.13333334 -0.0141709624 0
0.129999995 -0.0141709624 0
0.126666665 -0.0141709624 0
0.123333335 -0.0141709624 0
0.119999997 -0.0141709624 0
0.116666667 -0.0141709624 0
0.113333337 -0.0141709624 0
0.109999999 -0.0141709624 0
0.106666669 -0.0141709624 0
0.103333332 -0.0141709624 0
0.100000001 -0.0141709624 0
0.0966666639 -0.0141709624 0
0.0933333337 -0.0141709624 0
0.0900000036 -0.0141709624 0
0.086666666 -0.0141709624 0
0.0833333358 -0.0141709624 0
0.0799999982 -0.0141709624 0
0.0766666681 -0.0141709624 0
0.0733333305 -0.0141709624 0
0.0700000003 -0.0141709624 0
0.0666666701 -0.0141709624 0
0.0633333325 -0.0141709624 0
0.0599999987 -0.0141709624 0
0.0566666685 -0.0141709624 0
0.0533333346 -0.0141709624 0
0.0500000007 -0.0141709624 0
0.0466666669 -0.0141709624 0
0.144999996 -0.0170577131 0
0.141666666 -0.0170577131 0
0.138333336 -0.0170577131 0
0.135000005 -0.0170577131 0
0.13166666 -0.0170577131 0
0.12833333 -0.0170577131 0
0.125 -0.0170577131 0
0.12166667 -0.0170577131 0
0.118333332 -0.0170577131 0
0.115000002 -0.0170577131 0
0.111666664 -0.0170577131 0
0.108333334 -0.0170577131 0
0.104999997 -0.0170577131 0
0.101666667 -0.0170577131 0
0.0983333364 -0.0170577131 0
0.0949999988 -0.0170577131 0
0.0916666687 -0.0170577131 0
0.088333331 -0.0170577131 0
0.0850000009 -0.0170577131 0
0.0816666633 -0.0170577131 0
0.0783333331 -0.0170577131 0
0.075000003 -0.0170577131 0
0.0716666654 -0.0170577131 0
0.0683333352 -0.0170577131 0
0.0649999976 -0.0170577131 0
0.0616666675 -0.0170577131 0
0.0583333336 -0.0170577131 0
0.0549999997 -0.0170577131 0
0.0516666658 -0.0170577131 0
0.0483333319 -0.0170577131 0
0.0450000018 -0.0170577131 0
0.143333331 -0.0199444648 0
0.140000001 -0.0199444648 0
0.13666667 -0.0199444648 0
0.13333334 -0.0199444648 0
0.129999995 -0.0199444648 0
0.126666665 -0.0199444648 0
0.123333335 -0.0199444648 0
0.119999997 -0.0199444648 0
0.116666667 -0.0199444648 0
0.113333337 -0.0199444648 0
0.109999999 -0.0199444648 0
0.106666669 -0.0199444648 0
0.103333332 -0.0199444648 0
0.100000001 -0.0199444648 0
0.0966666639 -0.0199444648 0
0.0933333337 -0.0199444648 0
0.0900000036 -0.0199444648 0
0.086666666 -0.0199444648 0
0.0833333358 -0.0199444648 0
0.0799999982 -0.0199444648 0
0.0766666681 -0.0199444648 0
0.0733333305 -0.0199444648 0
0.0700000003 -0.0199444648 0
0.0666666701 -0.0199444648 0
0.0633333325 -0.0199444648 0
0.0599999987 -0.0199444648 0
0.0566666685 -0.0199444648 0
0.0533333346 -0.0199444648 0
0.0500000007 -0.0199444648 0
0.0466666669 -0.0199444648 0
0.043333333 -0.0199444648 0
0.141666666 -0.0228312165 0
0.138333336 -0.0228312165 0
0.135000005 -0.0228312165 0
0.13166666 -0.0228312165 0
0.12833333 -0.0228312165 0
0.125 -0.0228312165 0
0.12166667 -0.0228312165 0
0.118333332 -0.0228312165 0
0.115000002 -0.0228312165 0
0.111666664 -0.0228312165 0
0.108333334 -0.0228312165 0
0.104999997 -0.0228312165 0
0.101666667 -0.0228312165 0
0.0983333364 -0.0228312165 0
0.0949999988 -0.0228312165 0
0.0916666687 -0.0228312165 0
0.088333331 -0.0228312165 0
0.0850000009 -0.0228312165 0
0.0816666633 -0.0228312165 0
0.0783333331 -0.0228312165 0
0.075000003 -0.0228312165 0
0.0716666654 -0.0228312165 0
0.0683333352 -0.0228312165 0
0.0649999976 -0.0228312165 0
0.0616666675 -0.0228312165 0
0.0583333336 -0.0228312165 0
0.0549999997 -0.0228312165 0
0.0516666658 -0.0228312165 0
0.0483333319 -0.0228312165 0
0.0450000018 -0.0228312165 0
0.0416666679 -0.0228312165 0
0.140000001 -0.0257179681 0
0.13666667 -0.0257179681 0
0.13333334 -0.0257179681 0
0.129999995 -0.0257179681 0
0.126666665 -0.0257179681 0
0.123333335 -0.0257179681 0
0.119999997 -0.0257179681 0
0.116666667 -0.0257179681 0
0.113333337 -0.0257179681 0
0.109999999 -0.0257179681 0
0.106666669 -0.0257179681 0
0.103333332 -0.0257179681 0
0.100000001 -0.0257179681 0
0.0966666639 -0.0257179681 0
0.0933333337 -0.0257179681 0
0.0900000036 -0.0257179681 0
0.086666666 -0.0257179681 0
0.0833333358 -0.0257179681 0
0.0799999982 -0.0257179681 0
0.0766666681 -0.0257179681 0
0.0733333305 -0.0257179681 0
0.0700000003 -0.0257179681 0
0.0666666701 -0.0257179681 0
0.0633333325 -0.0257179681 0
0.0599999987 -0.0257179681 0
0.0566666685 -0.0257179681 0
0.0533333346 -0.0257179681 0
0.0500000007 -0.0257179681 0
0.0466666669 -0.0257179681 0
0.043333333 -0.0257179681 0
0.0399999991 -0.0257179681 0
0.138333336 -0.0286047198 0
0.135000005 -0.0286047198 0
0.13166666 -0.0286047198 0
0.12833333 -0.0286047198 0
0.125 -0.0286047198 0
0.12166667 -0.0286047198 0
0.118333332 -0.0286047198 0
0.115000002 -0.0286047198 0
0.111666664 -0.0286047198 0
0.108333334 -0.0286047198 0
0.104999997 -0.0286047198 0
0.101666667 -0.0286047198 0
0.0983333364 -0.0286047198 0
0.0949999988 -0.0286047198 0
0.0916666687 -0.0286047198 0
0.088333331 -0.0286047198 0
0.0850000009 -0.0286047198 0
0.0816666633 -0.0286047198 0
0.0783333331 -0.0286047198 0
0.075000003 -0.0286047198 0
0.0716666654 -0.0286047198 0
0.0683333352 -0.0286047198 0
0.0649999976 -0.0286047198 0
0.0616666675 -0.0286047198 0
0.0583333336 -0.0286047198 0
0.0549999997 -0.0286047198 0
0.0516666658 -0.0286047198 0
0.0483333319 -0.0286047198 0
0.0450000018 -0.0286047198 0
0.0416666679 -0.0286047198 0
0.038333334 -0.0286047198 0
0.13666667 -0.0314914696 0
0.13333334 -0.0314914696 0
0.129999995 -0.0314914696 0
0.126666665 -0.0314914696 0
0.123333335 -0.0314914696 0
0.119999997 -0.0314914696 0
0.116666667 -0.0314914696 0
0.113333337 -0.0314914696 0
0.109999999 -0.0314914696 0
0.106666669 -0.0314914696 0
0.103333332 -0.0314914696 0
0.100000001 -0.0314914696 0
0.0966666639 -0.0314914696 0
0.0933333337 -0.0314914696 0
0.0900000036 -0.0314914696 0
0.086666666 -0.0314914696 0
0.0833333358 -0.0314914696 0
0.0799999982 -0.0314914696 0
0.0766666681 -0.0314914696 0
0.0733333305 -0.0314914696 0
0.0700000003 -0.0314914696 0
0.0666666701 -0.0314914696 0
0.0633333325 -0.0314914696 0
0.0599999987 -0.0314914696 0
0.0566666685 -0.0314914696 0
0.0533333346 -0.0314914696 0
0.0500000007 -0.0314914696 0
0.0466666669 -0.0314914696 0
0.043333333 -0.0314914696 0
0.0399999991 -0.0314914696 0
0.0366666652 -0.0314914696 0
0.135000005 -0.0343782231 0
0.13166666 -0.0343782231 0
0.12833333 -0.0343782231 0
0.125 -0.0343782231 0
0.12166667 -0.0343782231 0
0.118333332 -0.0343782231 0
0.115000002 -0.0343782231 0
0.111666664 -0.0343782231 0
0.108333334 -0.0343782231 0
0.104999997 -0.0343782231 0
0.101666667 -0.0343782231 0
0.0983333364 -0.0343782231 0
0.0949999988 -0.0343782231 0
0.0916666687 -0.0343782231 0
0.088333331 -0.0343782231 0
0.0850000009 -0.0343782231 0
0.0816666633 -0.0343782231 0
0.0783333331 -0.0343782231 0
0.075000003 -0.0343782231 0
0.0716666654 -0.0343782231 0
0.0683333352 -0.0343782231 0
0.0649999976 -0.0343782231 0
0.0616666675 -0.0343782231 0
0.0583333336 -0.0343782231 0
0.0549999997 -0.0343782231 0
0.0516666658 -0.0343782231 0
0.0483333319 -0.0343782231 0
0.0450000018 -0.0343782231 0
0.0416666679 -0.0343782231 0
0.038333334 -0.0343782231 0
0.0350000001 -0.0343782231 0
0.13333334 -0.0372649729 0
0.129999995 -0.0372649729 0
0.126666665 -0.0372649729 0
0.123333335 -0.0372649729 0
0.119999997 -0.0372649729 0
0.116666667 -0.0372649729 0
0.113333337 -0.0372649729 0
0.109999999 -0.0372649729 0
0.106666669 -0.0372649729 0
0.103333332 -0.0372649729 0
0.100000001 -0.0372649729 0
0.0966666639 -0.0372649729 0
0.0933333337 -0.0372649729 0
0.0900000036 -0.0372649729 0
0.086666666 -0.0372649729 0
0.0833333358 -0.0372649729 0
0.0799999982 -0.0372649729 0
0.0766666681 -0.0372649729 0
0.0733333305 -0.0372649729 0
0.0700000003 -0.0372649729 0
0.0666666701 -0.0372649729 0
0.0633333325 -0.0372649729 0
0.0599999987 -0.0372649729 0
0.0566666685 -0.0372649729 0
0.0533333346 -0.0372649729 0
0.0500000007 -0.0372649729 0
0.0466666669 -0.0372649729 0
0.043333333 -0.0372649729 0
0.0399999991 -0.0372649729 0
0.0366666652 -0.0372649729 0
0.0333333351 -0.0372649729 0
0.13166666 -0.0401517227 0
0.12833333 -0.0401517227 0
0.125 -0.0401517227 0
0.12166667 -0.0401517227 0
0.118333332 -0.0401517227 0
0.115000002 -0.0401517227 0
0.111666664 -0.0401517227 0
[...]
POINT_DATA 961
SCALARS Temp float 1
LOOKUP_TABLE default
259.8432640630442
211.71646425160546
181.67369570106405
166.73807410549364
160.28374246042338
157.77386607535996
156.87099139594577
156.5645420392529
156.4650802840527
156.43392357051627
156.4244406608319
156.42162925460804
156.42080962422327
156.4205762041417
156.4205119332555
156.4204908808327
156.4204850065216
156.42048127301345
156.42048507415862
156.42048599399828
156.4204962897784
156.42054829386933
156.42081794586437
156.42224216371423
156.42942317630005
156.46391141959444
156.61894386442398
157.25512692382893
159.54893496139397
166.48178481708564
183.99084420775512
215.38086030299567
171.1882130289423
147.19592004562307
135.8476528629448
131.10430339789144
129.2994143953056
128.65931401369852
128.44416700778808
128.37483698804806
128.3532392814285
128.34670000313733
128.34476410119646
128.3442030744864
128.34404327737172
128.34399597182016
128.34398626849497
128.34398155655165
128.3439823693296
128.3439820835691
128.34398683945597
128.34401185469557
128.34414370011464
128.3448525598626
128.34842485273006
128.3657012595226
128.44429766034298
128.77373627152068
130.00688798724792
133.96785195652507
144.46743466321095
165.63798952244778
187.07570643261587
149.21152160551142
128.71640346484406
119.07081840908945
115.02607188229265
113.47646950210701
112.92269957976767
112.73525490701675
112.67448604396644
112.65546302215576
112.64968128005489
112.64796340680707
112.64746532589815
112.6473219941851
112.64728277777382
112.64727053447373
112.64726628922607
112.64726812712162
112.64726885238079
112.64728101070241
112.64733955000783
112.64765252392297
112.64922692058077
112.65683890411685
112.69159785878654
112.83882547549042
113.40336820881589
115.30356360602084
120.73870461738132
133.4903073217621
158.41045231908456
172.52585691576837
138.7123339526963
120.0654990043795
111.1503401375976
107.3649405507162
105.90027683421415
105.37284176981898
105.19327274094503
105.13480286387936
105.11644098726852
105.11084237750453
105.10917758750496
105.10869269469082
105.10855343667254
105.10851539985212
105.10850398107165
105.10850194553439
105.10850152054861
105.1085059439695
105.10853002050158
105.10865572070303
105.10929160836896
105.11234480268466
105.1262635266413
105.18546501546577
105.41596311726495
106.2189130361713
108.66608406881393
115.06718241568315
129.36013345132247
156.07503459526876
165.96939858880592
134.2632827049381
116.4480883617088
107.81969052750114
104.1245639121763
102.68672095039211
102.16696560156983
101.98954634499994
101.93167153164916
101.91347217498993
101.90791803077627
101.90626544251353
101.90578366643032
101.90564620416745
101.90560710663419
101.90559614003622
101.90559402749626
101.90559469233848
101.90560399620158
101.90565152952716
101.90589041526717
101.90702952256412
101.91219847766473
101.93419700045072
102.0206766816417
102.32958053075517
103.31744562983172
106.11555294221786
113.08584390247192
128.09265010411366
155.4522821482152
163.3129517477337
132.54858601632475
115.06524988795987
106.54057182578535
102.87536714026491
101.44572139563249
100.92815255709742
100.75130889576658
100.69358535649013
100.67542475114145
100.66988127026515
100.66823114076944
100.66775020574727
100.66761278576438
100.6675739304528
100.66756345002074
100.66756103346408
100.66756360601734
100.6675805159351
100.66766508996628
100.66806664081776
100.66987647382969
100.6775663324192
100.70798255739112
100.81866500382257
101.18571505902251
102.28868280448954
105.27847106583592
112.50257573096052
127.76226266269846
155.30704658403835
162.32320859138918
131.93457444965588
114.57226607281078
106.08272736278641
102.42701491213872
100.99981411354457
100.4828586838964
100.30616863777882
100.24848296974119
100.23033189099871
100.22479083860345
100.22314130729092
100.22266067125058
100.22252307218301
100.2224843351324
100.22247386512126
100.2224720289016
100.2224771418825
100.22250562718523
100.222640585174
100.22324494589965
100.22580564105954
100.23597418706248
100.27350092718106
100.40147023618348
100.80368504673099
101.96672894011347
105.03960223975773
112.3529574153808
127.68570558836991
155.27606197872186
161.97784034155424
131.7269175601958
114.4058045251277
105.92763343747743
102.27482520912716
100.84833808630886
100.33155290530131
100.15490342093459
100.0972271193488
100.07907844589054
100.07353790096285
100.0718885347247
100.07140789898565
100.07127034798846
100.07123169823946
100.07122130462547
100.07122029088355
100.07122886625817
100.07127229530256
100.07146641400524
100.0722861921136
100.07554971578354
100.08772619549968
100.13017051796062
100.26833359549308
100.68836033985117
101.8769479000095
104.97896414051024
112.31835060215235
127.66934283342053
155.26982384651131
161.8633520827539
131.65978255257656
114.35201831140539
105.87735039131155
102.22540413358772
100.79911846585593
100.28238221273146
100.10574335428235
100.04806941640301
100.02992131957895
100.02438089785731
100.02273157939138
100.0222509256026
100.02211339927884
100.02207478408462
100.0220646313317
100.0220646445936
100.02207750843891
100.0221376812539
100.02239166991384
100.02340460007696
100.02721718536147
100.04074408149555
100.08602617625084
100.22924408887252
100.65674755820729
101.8543000707396
104.96492013127344
112.31094132116493
127.66607002757387
155.26865527061986
161.82695920339955
131.63876060566236
114.3352540646262
105.86162323579083
102.20992312081844
100.78369178634871
100.26696805811943
100.09033154028602
100.03265841751272
100.01451041264092
100.00897004130124
100.00732072436485
100.00684007855222
100.00670257255707
100.0066640148788
100.0066541595349
100.00665536813318
100.00667283644738
100.00674922961792
100.00705493850433
100.00821406326502
100.01238696312957
100.02667870711629
100.0733460202105
100.21866868201353
100.64880432623313
101.84903941214165
104.9618866849489
112.30942979959393
127.66541975160884
155.26841146221108
161.8157845618836
131.63243428364805
114.33017800705402
105.856845404069
102.20520776216239
100.77899713710902
100.26227677506694
100.08564081529094
100.02796791300703
100.00981992578876
100.00427956709089
100.0026302488607
100.00214961122671
100.00201212288499
100.00197364787961
100.0019641208701
100.00196656658939
100.00198833512951
100.0020782720927
100.00242204162241
100.00367503456195
100.00804875134597
100.02270947356321
100.06995058065318
100.2160173306934
100.64695094325486
101.8478941096894
104.96127159546658
112.3091481414838
127.66532221693777
155.26836919568186
161.81232220152765
131.63058158346374
114.32867973129541
105.85543105911302
102.20380902021942
100.77760327022199
100.2608830042687
100.08424798721065
100.02657504819881
100.00842713932603
100.00288678273331
100.00123746579834
100.00075683599903
100.00061937038282
100.00058098546852
100.00057178531587
100.0005753494135
100.00060059986328
100.00070025895292
100.00106799834815
100.00237258609734
100.00684226710838
100.02165535609191
100.06910051847946
100.21539604593626
100.6465448780769
101.84765772952224
104.96114927968163
112.30909154753154
127.66529382777293
155.26838525287477
161.81137204236458
131.63006389160137
114.3282542998174
105.85500954321292
102.20340405969836
100.77719878738796
100.26047798444334
100.08384306742255
100.02617003980227
100.0080221298631
100.00248176886494
100.00083246484883
100.00035184713705
100.00021441102977
100.00017611631475
100.00016720611009
100.00017165394037
100.00019934892887
100.00030502581151
100.00068577838823
100.00201483473596
100.00652409835429
100.02139165364626
100.06890024999275
100.21525832143081
100.64645935491805
101.8476115535797
104.96112773368623
112.30908411968264
127.6652727690181
155.26837225885592
161.81108929228705
131.62990708600108
114.32813177596279
105.85488941994112
102.20328789200553
100.77708092678814
100.26036234204128
100.08372719387876
100.02605439144874
100.00790649833294
100.00236615405234
100.00071687872641
100.00023629196086
100.00009890120533
100.00006069694176
100.00005201969897
100.00005708119714
100.00008626940442
100.00019518011176
100.0005820701465
100.00192121316917
100.00644471139593
100.0213294620393
100.06885580944217
100.21522970506257
100.64644253217907
101.84760233073453
104.96112262510763
112.30907876678404
127.6652927831917
155.26836971053416
161.811025174459
131.62987558542673
114.32807335773732
105.85485990333572
102.2032577163585
100.77704875222719
100.26033024680845
100.08369482438427
100.02602205962654
100.0078742172915
100.00233398629113
100.00068481012903
100.00020431939247
100.00006702199536
100.00002892699291
100.00002043385769
100.00002587975837
100.00005587039166
100.00016630195833
100.00055572309019
100.00189852020092
100.0064265542675
100.0213161562582
100.06884698063861
100.21522434492158
100.64644021305745
101.84760200091645
104.96112409532667
112.30907253655653
127.66528808536856
155.26836733412583
161.81099505518785
131.62986491279779
114.3280601936853
105.85485181498235
102.20324369961837
100.77704020986641
100.26032101454858
100.0836864284312
100.0260139522677
100.00786643894162
100.00232658659945
100.00067776522454
100.00019758185029
100.00006052260127
100.00002261271489
100.00001429496685
100.00001997836034
100.00005036025524
100.0001614267747
100.00055177246307
100.00189574757435
100.00642509723711
100.02131597969338
100.0688479227695
100.21522601238256
100.64644225653609
101.84760419693825
104.96112532423267
112.30908600240576
127.66528708197616
155.26838084343035
161.8110093783155
131.62982310630568
114.32806941090733
105.85485685224232
102.2032431398891
100.77703993636213
100.26032057093096
100.08368691709063
100.02601559186876
100.00786951805723
100.00233102278722
100.00068338242133
100.0002041077432
100.00006766670087
100.00003014047151
100.00002205985032
100.00002792226411
100.00005849469126
100.0001698045339
100.00056045608807
100.0019047753859
100.00643446634402
100.02132564227637
100.06885776342315
100.21523617839094
100.6464526922682
101.84761511141721
104.96113267901148
112.3090924825977
127.66529393352604
155.2683871990044
161.81102320262053
131.62982850795024
114.3280745877225
105.85484584654414
102.20324637521203
100.77704325172733
100.26032907073217
100.08369977370947
100.02603339632256
100.00789244405857
100.0023585171638
100.00071447413936
100.00023766443327
100.00010271329768
100.0000659872402
100.00005830007385
100.00006435576458
100.00009504354769
100.00020644893878
100.00059719547791
100.00194161148356
100.0064713930473
100.02136265402685
100.06889480414847
100.21527320392828
100.64648968193754
101.8476515482638
104.96117439905323
112.30912750151194
127.6653405391737
155.26845034605697
161.81096477703068
131.62983936979174
114.32808556256738
105.85485397605103
102.20326390722055
100.77707056271718
100.26037127635081
100.0837595018461
100.02611209328808
100.00798851802713
100.00246859128754
100.00083436264129
100.00036355190676
100.0002318227529
100.00019662671868
100.00018958909361
100.00019589889708
100.00022668672845
100.00033814007253
100.00072891792402
100.00207335853409
100.00660315960033
100.02149442595993
100.06902666974183
100.21540522736596
100.64662212220826
101.84778330865325
104.96130748457078
112.30926652049185
127.66549356454819
155.26866080226637
161.8109960156591
131.62987234403758
114.32809054328206
105.8549055764146
102.20334191176423
100.77720060376302
100.26056158558058
100.08401659824693
100.02643375441454
100.00836378275068
100.00288232573905
100.00127197989626
100.0008141259588
100.0006885689972
100.00065596847688
100.00064990268756
100.00065654184473
100.00068743456056
100.0007989220172
100.00118971379067
100.00253416229916
100.00706396984444
100.0219552235
100.06948742422412
100.21586588060138
100.6470823510664
101.84824535717804
104.96176703245936
112.30973708666882
127.66600732793673
155.2693675132275
161.81102719289592
131.6299426750938
114.32821395839218
105.85513595290973
102.20372114935743
100.77778101168359
100.26137470106735
100.08506432944486
100.02768258734814
100.00976046426847
100.00437252683707
100.00281350093496
100.00238025643887
100.00226505185006
100.00223630042535
100.00223151590265
100.00223854260824
100.00226954351767
100.0023810603682
100.00277186050745
100.00411631198982
100.0086461187641
100.02353740351363
100.07106967360764
100.21744836018375
100.64866499624989
101.84983026349057
104.96336249066213
112.31137293407073
127.66781111653182
155.27182695343058
161.81118927556042
131.63021196878614
114.3288290530389
105.85619160077671
102.20542655123734
100.78026851675577
100.26468425111993
100.0891088424703
100.03228316433915
100.01471997373439
100.00953164882337
100.00806911683485
100.00767653837556
100.00757638531967
100.00755259232041
100.0075492831472
100.0075567148292
100.00758782010436
100.00769936198769
100.00809016878333
100.00943462330133
100.01396443411825
100.02885573574989
100.07638809035058
100.22276708918108
100.65398625908637
101.8551580640899
104.96872531319669
112.31687764358392
127.67389113189606
155.28016164872975
161.81203653354422
131.63180173288185
114.33169576127904
105.86097267872482
102.21271640062575
100.79034431362447
100.2773656828793
100.10382732615949
100.04834633618927
100.03154289696583
100.02672544523251
100.02541967470886
100.02508488069539
100.02500357784191
100.02498533487893
100.02498352230363
100.02499132270557
100.02502251742231
100.02513408162615
100.02552489510194
100.02686935465671
100.03139919170938
100.04629059151145
100.09382334554859
100.24020380307
100.67142969324047
101.87263053179353
104.9863178863286
112.33496311432727
127.69391726288613
155.30754154985883
161.81568752532053
131.63893839097375
114.34429220731472
105.88125327157326
102.24204376037707
100.82856365850225
100.32281384382885
100.15417284760086
100.10150904572936
100.0860979092501
100.0818715968621
100.08078299600975
100.08051836626501
100.08045742011763
100.08044456251507
100.0804440876027
100.08045220868615
100.08048346929394
100.08059504877902
100.08098586204277
100.08233035650329
100.08686031955007
100.1017521934812
100.14928676734998
100.29567477756012
100.72692911694966
101.92824513758784
105.04238513906786
112.3927852420504
127.75833215218343
155.39539862678615
161.83230196716207
131.67004648472
114.39723518540251
105.96193905016895
102.35171444001712
100.96289802833758
100.47437000435843
100.31584330326443
100.26825956909398
100.25501961890716
100.25158873065003
100.25075463188345
100.25056278302928
100.25052092838148
100.25051271287285
100.25051324090134
100.25052159872463
100.25055292894726
100.2506645383649
100.25105539886488
100.2524000361345
100.25693056892725
100.27182458876247
100.31936737385398
100.46578644043582
100.89715825847303
102.09891649416477
105.21471165310251
112.57119009726843
127.9583050980145
155.6674571228064
161.90260912828845
131.7975101402576
114.60389320954496
106.25764316731342
102.72747894133273
101.39662674406459
100.94298016658526
100.80235163031683
100.76249215496588
100.7520777720409
100.74954288493463
100.74896155445059
100.74883478184596
100.74880832385514
100.74880362892227
100.74880500504682
100.74881349645821
100.74884485038974
100.74895642115672
100.74934750506033
100.75069290840997
100.75522612877342
100.77012999533879
100.81770903834469
100.96426001775065
101.39610851854796
102.59956867062684
105.72136169691063
113.0985145299707
128.55402962006517
156.474737922794
162.1796131558822
132.27957482147042
115.3388441692699
107.23648400427187
103.8908385660322
102.67417533301662
102.28088482722802
102.16667705051802
102.1364866304192
102.12911180624222
102.12742284153983
102.1270555858998
102.12697968021546
102.12696454542444
102.12696185837707
102.12696374732809
102.12697247582096
102.12700396650546
102.12711585115267
102.12750777935399
102.1288564432096
102.13340159889252
102.14834986214616
102.19608693355654
102.34319369463867
102.77695976810821
103.9868939220292
107.13001024975522
114.5752323658911
130.23782610459745
158.74145897073348
163.17231665303146
133.9170772529673
117.65886268777817
110.10285090921117
107.10560565197979
106.08143793365531
105.77414606246947
105.69151528010732
105.67118192275142
105.66651934212547
105.66550741412419
105.66529760861783
105.66525513050877
105.66524719804812
105.66524664471747
105.66524870132142
105.66525735687252
105.66528862452024
105.6654018563488
105.6657982576099
105.66716217249788
105.67176179576443
105.68690257398876
105.7353108379387
105.88469817142582
106.32599143382366
107.55991038081399
110.77629703958208
118.43469690052424
134.68110959266022
164.64942951849622
166.3100513230538
138.7524393233058
123.96747517542394
117.37206323295362
114.94590570807497
114.18427145856968
113.97412475213453
113.92170333546488
113.90960036290953
113.90696698372577
113.90641895953391
113.90631158004079
113.90629045676431
113.90628534354715
113.90628558032466
113.90628834734319
113.90629761393095
113.9063308330142
113.90644907393204
113.90686367224103
113.90829320035348
113.9131288236565
113.92908171695711
113.98022856165021
114.13858092663945
114.60811680739964
115.92670555524454
119.3811394891364
127.65727364151624
145.376498473753
178.54144966135908
174.74952089651114
150.74678042473616
138.2091910441168
133.15641128868907
131.46606906267266
130.98060246814256
130.85650495601607
130.8274142397898
130.82102952416014
130.81969398516824
130.81942657055163
130.81937264261754
130.81936258412995
130.81936272334912
130.81936288950342
130.81936504874562
130.81937448934485
130.81941495518586
130.8195570978563
130.82005313907965
130.82176685457384
130.82757286099476
130.84677845767203
130.90849569819156
131.09994209897363
131.6682135634599
133.263013226991
137.42548077830878
147.3143409500903
168.16506611325096
206.93419728149237
194.17997739304582
173.87049743035365
165.06210161408023
161.84126620872493
160.85531250002484
160.59221997058788
160.5287160598853
160.51448297391562
160.51146064832187
160.51084425587686
160.5107272959123
160.51070236014823
160.51069880086516
160.51069808231657
160.5106995538298
160.51070390780268
160.5107234050608
160.51079225702452
160.51102997467996
160.5118631704477
160.51472820595822
160.52434227449496
160.55578898706398
160.65544406513385
160.95914073578223
161.8400105146056
164.23762784610577
170.24707899202122
183.7923984920488
210.52315281643112
253.02251402592242
