# vtk DataFile Version 2.0
Unstructured Grid Example
ASCII
DATASET UNSTRUCTURED_GRID

POINTS 961 float
0.150000006 -0.00839745998 0
0.146666661 -0.00839745998 0
0.143333331 -0.00839745998 0
0.140000001 -0.00839745998 0
0.13666667 -0.00839745998 0
0.13333334 -0.00839745998 0
0.129999995 -0.00839745998 0
0.126666665 -0.00839745998 0
0.123333335 -0.00839745998 0
0.119999997 -0.00839745998 0
0.116666667 -0.00839745998 0
0.113333337 -0.00839745998 0
0.109999999 -0.00839745998 0
0.106666669 -0.00839745998 0
0.103333332 -0.00839745998 0
0.100000001 -0.00839745998 0
0.0966666639 -0.00839745998 0
0.0933333337 -0.00839745998 0
0.0900000036 -0.00839745998 0
0.086666666 -0.00839745998 0
0.0833333358 -0.00839745998 0
0.0799999982 -0.00839745998 0
0.0766666681 -0.00839745998 0
0.0733333305 -0.00839745998 0
0.0700000003 -0.00839745998 0
0.0666666701 -0.00839745998 0
0.0633333325 -0.00839745998 0
0.0599999987 -0.00839745998 0
0.0566666685 -0.00839745998 0
0.0533333346 -0.00839745998 0
0.0500000007 -0.00839745998 0
0.148333326 -0.0112842107 0
0.144999996 -0.0112842107 0
0.141666666 -0.0112842107 0
0.138333336 -0.0112842107 0
0.135000005 -0.0112842107 0
0.13166666 -0.0112842107 0
0.12833333 -0.0112842107 0
0.125 -0.0112842107 0
0.12166667 -0.0112842107 0
0.118333332 -0.0112842107 0
0.115000002 -0.0112842107 0
0.111666664 -0.0112842107 0
0.108333334 -0.0112842107 0
0.104999997 -0.0112842107 0
0.101666667 -0.0112842107 0
0.0983333364 -0.0112842107 0
0.0949999988 -0.0112842107 0
0.0916666687 -0.0112842107 0
0.088333331 -0.0112842107 0
0.0850000009 -0.0112842107 0
0.0816666633 -0.0112842107 0
0.0783333331 -0.0112842107 0
0.075000003 -0.0112842107 0
0.0716666654 -0.0112842107 0
0.0683333352 -0.0112842107 0
0.0649999976 -0.0112842107 0
0.0616666675 -0.0112842107 0
0.0583333336 -0.0112842107 0
0.0549999997 -0.0112842107 0
0.0516666658 -0.0112842107 0
0.0483333319 -0.0112842107 0
0.146666661 -0.0141709624 0
0.143333331 -0.0141709624 0
0.140000001 -0.0141709624 0
0.13666667 -0.0141709624 0
0.13333334 -0.0141709624 0
0.129999995 -0.0141709624 0
0.126666665 -0.0141709624 0
0.123333335 -0.0141709624 0
0.119999997 -0.0141709624 0
0.116666667 -0.0141709624 0
0.113333337 -0.0141709624 0
0.109999999 -0.0141709624 0
0.106666669 -0.0141709624 0
0.103333332 -0.0141709624 0
0.100000001 -0.0141709624 0
0.0966666639 -0.0141709624 0
0.0933333337 -0.0141709624 0
0.0900000036 -0.0141709624 0
0.086666666 -0.0141709624 0
0.0833333358 -0.0141709624 0
0.0799999982 -0.0141709624 0
0.0766666681 -0.0141709624 0
0.0733333305 -0.0141709624 0
0.0700000003 -0.0141709624 0
0.0666666701 -0.0141709624 0
0.0633333325 -0.0141709624 0
0.0599999987 -0.0141709624 0
0.0566666685 -0.0141709624 0
0.0533333346 -0.0141709624 0
0.0500000007 -0.0141709624 0
0.0466666669 -0.0141709624 0
0.144999996 -0.0170577131 0
0.141666666 -0.0170577131 0
0.138333336 -0.0170577131 0
0.135000005 -0.0170577131 0
0.13166666 -0.0170577131 0
0.12833333 -0.0170577131 0
0.125 -0.0170577131 0
0.12166667 -0.0170577131 0
0.118333332 -0.0170577131 0
0.115000002 -0.0170577131 0
0.111666664 -0.0170577131 0
0.108333334 -0.0170577131 0
0.104999997 -0.0170577131 0
0.101666667 -0.0170577131 0
0.0983333364 -0.0170577131 0
0.0949999988 -0.0170577131 0
0.0916666687 -0.0170577131 0
0.088333331 -0.0170577131 0
0.0850000009 -0.0170577131 0
0.0816666633 -0.0170577131 0
0.0783333331 -0.0170577131 0
0.075000003 -0.0170577131 0
0.0716666654 -0.0170577131 0
0.0683333352 -0.0170577131 0
0.0649999976 -0.0170577131 0
0.0616666675 -0.0170577131 0
0.0583333336 -0.0170577131 0
0.0549999997 -0.0170577131 0
0.0516666658 -0.0170577131 0
0.0483333319 -0.0170577131 0
0.0450000018 -0.0170577131 0
0.143333331 -0.0199444648 0
0.140000001 -0.0199444648 0
0.13666667 -0.0199444648 0
0.13333334 -0.0199444648 0
0.129999995 -0.0199444648 0
0.126666665 -0.0199444648 0
0.123333335 -0.0199444648 0
0.119999997 -0.0199444648 0
0.116666667 -0.0199444648 0
0.113333337 -0.0199444648 0
0.109999999 -0.0199444648 0
0.106666669 -0.0199444648 0
0.103333332 -0.0199444648 0
0.100000001 -0.0199444648 0
0.0966666639 -0.0199444648 0
0.0933333337 -0.0199444648 0
0.0900000036 -0.0199444648 0
0.086666666 -0.0199444648 0
0.0833333358 -0.0199444648 0
0.0799999982 -0.0199444648 0
0.0766666681 -0.0199444648 0
0.0733333305 -0.0199444648 0
0.0700000003 -0.0199444648 0
0.0666666701 -0.0199444648 0
0.0633333325 -0.0199444648 0
0.0599999987 -0.0199444648 0
0.0566666685 -0.0199444648 0
0.0533333346 -0.0199444648 0
0.0500000007 -0.0199444648 0
0.0466666669 -0.0199444648 0
0.043333333 -0.0199444648 0
0.141666666 -0.0228312165 0
0.138333336 -0.0228312165 0
0.135000005 -0.0228312165 0
0.13166666 -0.0228312165 0
0.12833333 -0.0228312165 0
0.125 -0.0228312165 0
0.12166667 -0.0228312165 0
0.118333332 -0.0228312165 0
0.115000002 -0.0228312165 0
0.111666664 -0.0228312165 0
0.108333334 -0.0228312165 0
0.104999997 -0.0228312165 0
0.101666667 -0.0228312165 0
0.0983333364 -0.0228312165 0
0.0949999988 -0.0228312165 0
0.0916666687 -0.0228312165 0
0.088333331 -0.0228312165 0
0.0850000009 -0.0228312165 0
0.0816666633 -0.0228312165 0
0.0783333331 -0.0228312165 0
0.075000003 -0.0228312165 0
0.0716666654 -0.0228312165 0
0.0683333352 -0.0228312165 0
0.0649999976 -0.0228312165 0
0.0616666675 -0.0228312165 0
0.0583333336 -0.0228312165 0
0.0549999997 -0.0228312165 0
0.0516666658 -0.0228312165 0
0.0483333319 -0.0228312165 0
0.0450000018 -0.0228312165 0
0.0416666679 -0.0228312165 0
0.140000001 -0.0257179681 0
0.13666667 -0.0257179681 0
0.13333334 -0.0257179681 0
0.129999995 -0.0257179681 0
0.126666665 -0.0257179681 0
0.123333335 -0.0257179681 0
0.119999997 -0.0257179681 0
0.116666667 -0.0257179681 0
0.113333337 -0.0257179681 0
0.109999999 -0.0257179681 0
0.106666669 -0.0257179681 0
0.103333332 -0.0257179681 0
0.100000001 -0.0257179681 0
0.0966666639 -0.0257179681 0
0.0933333337 -0.0257179681 0
0.0900000036 -0.0257179681 0
0.086666666 -0.0257179681 0
0.0833333358 -0.0257179681 0
0.0799999982 -0.0257179681 0
0.0766666681 -0.0257179681 0
0.0733333305 -0.0257179681 0
0.0700000003 -0.0257179681 0
0.0666666701 -0.0257179681 0
0.0633333325 -0.0257179681 0
0.0599999987 -0.0257179681 0
0.0566666685 -0.0257179681 0
0.0533333346 -0.0257179681 0
0.0500000007 -0.0257179681 0
0.0466666669 -0.0257179681 0
0.043333333 -0.0257179681 0
0.0399999991 -0.0257179681 0
0.138333336 -0.0286047198 0
0.135000005 -0.0286047198 0
0.13166666 -0.0286047198 0
0.12833333 -0.0286047198 0
0.125 -0.0286047198 0
0.12166667 -0.0286047198 0
0.118333332 -0.0286047198 0
0.115000002 -0.0286047198 0
0.111666664 -0.0286047198 0
0.108333334 -0.0286047198 0
0.104999997 -0.0286047198 0
0.101666667 -0.0286047198 0
0.0983333364 -0.0286047198 0
0.0949999988 -0.0286047198 0
0.0916666687 -0.0286047198 0
0.088333331 -0.0286047198 0
0.0850000009 -0.0286047198 0
0.0816666633 -0.0286047198 0
0.0783333331 -0.0286047198 0
0.075000003 -0.0286047198 0
0.0716666654 -0.0286047198 0
0.0683333352 -0.0286047198 0
0.0649999976 -0.0286047198 0
0.0616666675 -0.0286047198 0
0.0583333336 -0.0286047198 0
0.0549999997 -0.0286047198 0
0.0516666658 -0.0286047198 0
0.0483333319 -0.0286047198 0
0.0450000018 -0.0286047198 0
0.0416666679 -0.0286047198 0
0.038333334 -0.0286047198 0
0.13666667 -0.0314914696 0
0.13333334 -0.0314914696 0
0.129999995 -0.0314914696 0
0.126666665 -0.0314914696 0
0.123333335 -0.0314914696 0
0.119999997 -0.0314914696 0
0.116666667 -0.0314914696 0
0.113333337 -0.0314914696 0
0.109999999 -0.0314914696 0
0.106666669 -0.0314914696 0
0.103333332 -0.0314914696 0
0.100000001 -0.0314914696 0
0.0966666639 -0.0314914696 0
0.0933333337 -0.0314914696 0
0.0900000036 -0.0314914696 0
0.086666666 -0.0314914696 0
0.0833333358 -0.0314914696 0
0.0799999982 -0.0314914696 0
0.0766666681 -0.0314914696 0
0.0733333305 -0.0314914696 0
0.0700000003 -0.0314914696 0
0.0666666701 -0.0314914696 0
0.0633333325 -0.0314914696 0
0.0599999987 -0.0314914696 0
0.0566666685 -0.0314914696 0
0.0533333346 -0.0314914696 0
0.0500000007 -0.0314914696 0
0.0466666669 -0.0314914696 0
0.043333333 -0.0314914696 0
0.0399999991 -0.0314914696 0
0.0366666652 -0.0314914696 0
0.135000005 -0.0343782231 0
0.13166666 -0.0343782231 0
0.12833333 -0.0343782231 0
0.125 -0.0343782231 0
0.12166667 -0.0343782231 0
0.118333332 -0.0343782231 0
0.115000002 -0.0343782231 0
0.111666664 -0.0343782231 0
0.108333334 -0.0343782231 0
0.104999997 -0.0343782231 0
0.101666667 -0.0343782231 0
0.0983333364 -0.0343782231 0
0.0949999988 -0.0343782231 0
0.0916666687 -0.0343782231 0
0.088333331 -0.0343782231 0
0.0850000009 -0.0343782231 0
0.0816666633 -0.0343782231 0
0.0783333331 -0.0343782231 0
0.075000003 -0.0343782231 0
0.0716666654 -0.0343782231 0
0.0683333352 -0.0343782231 0
0.0649999976 -0.0343782231 0
0.0616666675 -0.0343782231 0
0.0583333336 -0.0343782231 0
0.0549999997 -0.0343782231 0
0.0516666658 -0.0343782231 0
0.0483333319 -0.0343782231 0
0.0450000018 -0.0343782231 0
0.0416666679 -0.0343782231 0
0.038333334 -0.0343782231 0
0.0350000001 -0.0343782231 0
0.13333334 -0.0372649729 0
0.129999995 -0.0372649729 0
0.126666665 -0.0372649729 0
0.123333335 -0.0372649729 0
0.119999997 -0.0372649729 0
0.116666667 -0.0372649729 0
0.113333337 -0.0372649729 0
0.109999999 -0.0372649729 0
0.106666669 -0.0372649729 0
0.103333332 -0.0372649729 0
0.100000001 -0.0372649729 0
0.0966666639 -0.0372649729 0
0.0933333337 -0.0372649729 0
0.0900000036 -0.0372649729 0
0.086666666 -0.0372649729 0
0.0833333358 -0.0372649729 0
0.0799999982 -0.0372649729 0
0.0766666681 -0.0372649729 0
0.0733333305 -0.0372649729 0
0.0700000003 -0.0372649729 0
0.0666666701 -0.0372649729 0
0.0633333325 -0.0372649729 0
0.0599999987 -0.0372649729 0
0.0566666685 -0.0372649729 0
0.0533333346 -0.0372649729 0
0.0500000007 -0.0372649729 0
0.0466666669 -0.0372649729 0
0.043333333 -0.0372649729 0
0.0399999991 -0.0372649729 0
0.0366666652 -0.0372649729 0
0.0333333351 -0.0372649729 0
0.13166666 -0.0401517227 0
0.12833333 -0.0401517227 0
0.125 -0.0401517227 0
0.12166667 -0.0401517227 0
0.118333332 -0.0401517227 0
0.115000002 -0.0401517227 0
0.111666664 -0.0401517227 0
[...]
POINT_DATA 961
SCALARS Temp float 1
LOOKUP_TABLE default
279.0312260424211
230.27378328005042
198.26405468664785
180.54014449750696
171.85960318267738
168.02331893314238
166.46408247291166
165.87162478687966
165.65840778381934
165.58499624913637
165.56062825267736
165.55278758205563
165.55032905944572
165.54957526368491
165.54934996786923
165.54928116314352
165.5492619902195
165.54925560471992
165.54925779434691
165.54926847372406
165.54932405695158
165.54959763292936
165.55088344408333
165.5567161233197
165.5817670114472
165.68244580258417
166.05417268802492
167.28610714381182
170.8536397797229
179.65586490344333
198.3050982628064
230.27382981815595
186.53367459595418
160.56958961759662
146.8993693817363
140.46964438524608
137.71705619912245
136.6254304930567
136.21842186439147
136.07409335286457
136.02498343248575
136.00883990543446
136.00368529516683
136.00208030780598
136.00159137248312
136.00144361941787
136.00140197941744
136.00139009983644
136.00138786507915
136.00139166724844
136.0014179025489
136.00154874500186
136.00217153398253
136.00503695523258
136.01754644400526
136.06895771054334
136.2647342458098
136.9419191073774
139.019859711935
144.53783151705537
156.96267753163704
179.65588164655236
198.2640301655216
160.56958386139618
138.48184007355513
126.98516611969093
121.60166868957239
119.29701306964553
118.38069500621054
118.03776571797209
117.91566093728396
117.87394733844113
117.8601863955104
117.85577834676069
117.85440174192556
117.85398143010984
117.85385560361725
117.85381802136659
117.85380690492636
117.8538071752119
117.85381805750744
117.85387580690022
117.85415395510864
117.85543830034239
117.86109957486893
117.8846944881157
117.97643144188267
118.30367278452546
119.35399393517068
122.3240692273982
129.5750605379323
144.53782198108388
170.85364386918883
180.54012063996592
146.89936510026828
126.98517329294575
116.51264813560559
111.56151964833504
109.42358298132805
108.56717639902465
108.2446555959787
108.1292245081674
108.08962516304439
108.07651468671584
108.07230336541396
108.07098518671202
108.07058120492515
108.07046072828344
108.07042522717626
108.07041607166201
108.07041770995647
108.07044091583431
108.07055617320776
108.07109013042016
108.07345831580557
108.08340567912026
108.12260817430727
108.26556002489272
108.74037456366327
110.15338377237799
113.86177230228918
122.32407747831202
139.0198702607372
167.28610005079827
171.85959199188002
140.46964511949105
121.60167271912431
111.56153898711534
106.77344906961498
104.69281129251627
103.85548966809321
103.53907364541371
103.42553690043202
103.38651130694393
103.37357149315328
103.36941002309554
103.36810625465588
103.36770702939701
103.36758695296795
103.36755169576446
103.36754363699775
103.36755012639088
103.36759452928062
103.36780358343408
103.36873167128336
103.37264629488278
103.3882091526243
103.4458634236685
103.6424375381463
104.25165004252607
105.94836766334676
110.15338061956471
119.35399192541918
136.94191622602892
166.05417938655995
168.0233089687635
137.7170702318091
119.2970289690191
109.42356900169104
104.6928067942832
102.63075313643323
101.7992138790864
101.48454404250137
101.37152366936469
101.33264750503419
101.3197507183276
101.31560147553533
101.31430098974053
101.31390273520032
101.31378318774568
101.31374865869996
101.3137418483809
101.31375576724702
101.31383274290556
101.3141770561246
101.31563315460282
101.32145287178183
101.34326061175028
101.4191341052693
101.66199066145879
102.37154918961231
104.25164960229364
108.74037527567388
118.30367800197082
136.2647184769596
165.6824370941822
166.46408027861696
136.6254397218426
118.38071735111357
108.56715852595599
103.85548491953168
101.79921322269604
100.9693655683376
100.65518144936091
100.54229765437499
100.50345965371045
100.49057345956675
100.48642713002715
100.48512759284283
100.48472939874343
100.48460999160072
100.48457600014814
100.4845717572174
100.48459650279571
100.48471800516131
100.48523443968594
100.48730584857901
100.49513384137578
100.52280610001843
100.6137101434774
100.88979560083709
101.66199011226337
103.642435717706
108.26555649212739
117.97642827790624
136.0689549484808
165.58177644544986
165.87163133473223
136.21843428546802
118.0377303395869
108.24464099956054
103.53907141831363
101.48454536730848
100.6551812456832
100.34112915881755
100.22828063101662
100.18945231018631
100.1765686549719
100.17242300180382
100.17112364085146
100.17072557464657
100.17060641643798
100.17057316296841
100.1705723852467
100.17061121971403
100.17078653709126
100.17149387716228
100.17418454157331
100.18381842951204
100.21614472701552
100.3174851255559
100.61370997571603
101.41913394462543
103.44586350869456
108.12260835907396
117.88468605004101
136.01752995044973
165.5567063810696
165.65840371965675
136.07411357635334
117.91562481334657
108.129214005627
103.42553681997185
101.37152249908638
100.542297671836
100.22828099549695
100.11544152711457
100.07661560379015
100.0637325487312
100.05958708060226
100.05828774424747
100.05788974399717
100.05777083308688
100.05773866511527
100.05774219910572
100.0577973241589
100.05802988297631
100.05892147767534
100.06214804814199
100.07316743760838
100.1086335361688
100.21614484356095
100.52280600883428
101.34326026291339
103.38820880944013
108.08340335031559
117.86110174761781
136.00504153225324
165.55090042685453
165.58501357000486
136.02492338681122
117.87393166440242
108.08962392822143
103.38651590176568
101.33264758264006
100.5034602924765
100.18945234414981
100.0766155889874
100.03779017021583
100.02490729760862
100.02076186385965
100.01946255866352
100.01906464571492
100.01894604822684
100.01891516275177
100.01892348506391
100.01899525689976
100.01928102483532
100.02032679020735
100.02395249843413
100.03588349782703
100.0731673920478
100.18381837565862
100.49513385512483
101.32145285367652
103.37264644852988
108.07345107255946
117.85542859445059
136.00215758242126
165.54958780160234
165.5606797525829
136.00879762034694
117.86018180256798
108.07651848928973
103.37357032368202
101.31975137496431
100.49057437207719
100.17656865717296
100.06373259962399
100.02490729517956
100.01202446805254
100.00787904292275
100.00657976924214
100.0061819520412
100.00606372969942
100.00603421793303
100.00604726345597
100.0061340122907
100.00646296510335
100.007620554893
100.01150314531907
100.0239525152099
100.0621480640739
100.17418448180138
100.48730569621443
101.31563287132279
103.36873042450107
108.07108955165124
117.85415693165614
136.00155655973222
165.5493121135435
165.55274089239532
136.0036658963034
117.8557819930433
108.07231178458231
103.36940873144866
101.31560227672068
100.48642685406065
100.17242303964551
100.05958698957934
100.0207618648678
100.00787905077067
100.00373363677902
100.00243439992612
100.00203669425748
100.00191886425468
100.00189066842631
100.00190783823074
100.00200641349721
100.00236596175463
100.00359413208956
100.00762056494135
100.02032680224161
100.05892145609043
100.1714939769366
100.4852347042054
101.3141780994453
103.36780236066302
108.07055376359726
117.85387647741611
136.00141838005575
165.54928159289344
165.55031546205146
136.0020855891059
117.854416852236
108.07098232919205
103.36810716938751
101.31430313204612
100.48512742695311
100.17112385194399
100.05828768658756
100.01946257297561
100.00657976429382
100.0024343977319
100.00113521803739
100.0007376458328
100.0006201969515
100.00059313208392
100.00061348925793
100.00072027234201
100.001098799703
100.00236595770151
100.00646296300226
100.01928104162127
100.05802981332309
100.17078650114006
100.48471789671359
101.31383231126802
103.36759406383192
108.07044016733124
117.85382191820298
136.00137152113388
165.54925947619273
165.54956349784496
136.00159567862514
117.85399853122433
108.07057664942066
103.36770762980444
101.31390165000529
100.48472935862267
100.1707254247568
100.05788971261929
100.0190646708019
100.00618194410247
100.00203669327763
100.0007376455231
100.00034026517392
100.0002231876234
100.00019701527243
100.00021956657359
100.0003313766359
100.00072027187122
100.0020064145178
100.0061340103832
100.01899526623586
100.05779731774531
100.170611333374
100.48459685627623
101.3137552744181
103.36754900268176
108.0704155478454
117.85380670736686
136.00139096355528
165.54925577242795
165.54935171997343
136.0014603102254
117.85384718695494
108.0704599420083
103.36759080423865
101.31378267129735
100.48461056435083
100.17060634121775
100.05777082579115
100.0189460436167
100.00606372831899
100.00191886566132
100.00062019661887
100.0002231877838
100.00010654453354
100.0000810742123
100.00010500864813
100.00021956639051
100.00061348856748
100.00190783654662
100.00604726422108
100.01892347835533
100.0577421392441
100.17057234918693
100.48457157342186
101.31374167150032
103.36754334248418
108.07041574332797
117.8537979296782
136.00138718148924
165.54925599799475
165.54927877756273
136.00141814773727
117.85380740039199
108.07042521840636
103.36754897021812
101.31374841992015
100.48457555428175
100.17057316123595
100.05773869688237
100.01891515290285
100.00603421821012
100.00189066510056
100.00059313205429
100.00019701498962
100.00008107420722
100.00005626848231
100.00008107425928
100.00019701506103
100.00059313290093
100.00189066659046
100.0060342153849
100.01891517493311
100.05773866248795
100.170573294377
100.48457579851689
101.31374816598748
103.36755122102528
108.07042315471124
117.85382198087433
136.00139490599804
165.54928515810104
165.54927536571782
136.00136700805203
117.85380958441816
108.07042381219034
103.36754242635631
101.31374315849435
100.4845715639661
100.17057247200452
100.0577421378554
100.01892349504557
100.00604727238293
100.00190783607194
100.0006134900977
100.00021956642452
100.00010500869519
100.000081074304
100.00010654462679
100.00022318742859
100.00062019688134
100.00191886309777
100.00606372261609
100.01894604228984
100.05777077795683
100.17060633742216
100.4846099831472
101.31378316188092
103.36758725680627
108.07045379195719
117.85385389188224
136.00143158202656
165.5493421904872
165.54928410242835
136.00137145973562
117.85381336210051
108.07041123657123
103.36754966027908
101.31375454648517
100.48459645017107
100.1706114144739
100.05779725024385
100.0189952746145
100.00613400584062
100.00200641190928
100.00072027165646
100.00033137647394
100.0002195666703
100.00019701533448
100.0002231876534
100.00034026543223
100.00073764595804
100.00203669218558
100.00618195069246
100.01906465712965
100.05788975623163
100.17072550941279
100.48472925818193
101.31390248437657
103.36770599816818
108.07058135521756
117.85397611227744
136.0015840244322
165.54957558787171
165.54922995312828
136.00138484525104
117.85383037662479
108.07043374105454
103.36759528452798
101.31383134557684
100.48471788513348
100.17078637760305
100.05802982449842
100.01928105386027
100.0064629574143
100.00236596115171
100.00109879932036
100.00072027215437
100.00061348921409
100.00059313204993
100.0006201968801
100.00073764610157
100.00113521755783
100.0024343971544
100.00657976770793
100.01946256932509
100.0582877233674
100.17112373874846
100.4851278663222
101.31430206471548
103.36810495552828
108.07098600809077
117.85440123499197
136.00207917849383
165.5503366653796
165.54926446496518
136.00142922682855
117.85386578506824
108.07055415480808
103.36780020840281
101.31417700197183
100.48523492442803
100.17149379674721
100.05892148496817
100.02032679014832
100.00762055747512
100.00359413144437
100.00236596115072
100.00200641381392
100.00190783873084
100.00189066848289
100.00191886429504
100.00203669440829
100.00243439940849
100.00373363876184
100.00787904591792
100.02076187857207
100.05958701172894
100.17242296750359
100.48642701549653
101.31560104725574
103.36940962980168
108.07229771335206
117.85577251561699
136.00367551382445
165.55278629943024
165.5493196178402
136.00156366876496
117.85414131942088
108.07109119126618
103.36872803038088
101.31563289014649
100.48730538668342
100.17418452679738
100.06214810360493
100.02395249961957
100.01150315632236
100.00762055493803
100.00646296465318
100.00613401186554
100.00604726298432
100.006034218058
100.00606373065554
100.00618195149247
100.00657976936526
100.00787904405549
100.01202446611244
100.02490730508677
100.06373254503151
100.17656876659566
100.4905737816855
101.31975010363364
103.37357156734248
108.07651162978895
117.86018543986151
136.0088388607289
165.56062487187157
165.5495886607538
136.00213182733089
117.8554283231328
108.07344639707061
103.3726440638734
101.32145350002394
100.49513340956368
100.18381846611162
100.07316736175765
100.03588347754804
100.02395249600825
100.0203267873474
100.01928102583294
100.0189952617304
100.01892348565893
100.01891516248354
100.0189460484424
100.01906464444404
100.01946255938391
100.02076186244895
100.02490730289969
100.03779017266451
100.07661554937721
100.18945236298099
100.50345975403853
101.33264813285007
103.38651059598185
108.08962420628778
117.87395274308005
136.02499199099466
165.5850128631799
165.5509238954707
136.00503054204
117.86111467802074
108.08340320874703
103.38821113427372
101.34326039839105
100.52280653010328
100.2161451470166
100.10863361252035
100.07316756672878
100.06214814717232
100.05892156497517
100.05802996692509
100.05779740687164
100.05774228723001
100.0577387596648
100.05777091644379
100.05788983408463
100.05828783296272
100.05958716404727
100.06373263699189
100.0766156562882
100.1154416071943
100.2282807511699
100.5422970906317
101.37152294427212
103.4255342389486
108.12921826916009
117.91565412713885
136.07407026337393
165.6583920705166
165.55670008434697
136.01755018196704
117.88468708389067
108.1226081421042
103.44586720564396
101.41913385405309
100.6137107336759
100.31748539933037
100.21614495583741
100.18381867760989
100.17418477869163
100.17149413419311
100.17078682891439
100.17061147796933
100.17057263608261
100.1705734159933
100.17060666166249
100.170725829381
100.17112389594462
100.17242326894426
100.17656889916064
100.18945254132159
100.22828086721462
100.34112914914402
100.65518168797354
101.48454346897825
103.53907220430776
108.24465207046745
118.03776381241215
136.2184172562328
165.87162175720658
165.58176083759486
136.06897201075847
117.97642454756745
108.26555975260065
103.64243522136503
101.66199116641826
100.88979637118047
100.6137104055225
100.52280653925547
100.49513427154872
100.48730619954678
100.48523476528861
100.48471831470482
100.48459685400474
100.48457215254844
100.48457631931737
100.48461036249707
100.4847297576483
100.48512792880605
100.48642749790247
100.49057380617415
100.50346001526367
100.54229790259942
100.65518175818306
100.96936652273989
101.7992135384321
103.85548934693988
108.56717647479805
118.38069243765673
136.625426495626
166.46408242043938
165.68244341001162
136.2647050280311
118.30366941745544
108.7403789280104
104.25164745323097
102.37154985730739
101.66199062802107
101.41913403732221
101.34326058152878
101.32145278988165
101.31563320347072
101.31417732528269
101.31383280652048
101.31375578157441
101.3137418649006
101.31374865243616
101.31378322959618
101.3139027844786
101.31430111101042
101.3156014734473
101.31975078088563
101.33264760364897
101.37152362892336
101.48454433287435
101.7992135481467
102.63075447408757
104.69281363723609
109.42358703365488
119.29701841975506
137.71705744736732
168.02331102450995
166.0541795471582
136.94189466710702
119.3539894191756
110.15337412099659
105.94836614158257
104.25164865416397
103.64243513648452
103.44586155914062
103.38820756371267
103.37264431924294
103.3687295571079
103.3678013183569
103.36759251281474
103.36754833292558
103.36754147138093
103.36754981527015
103.36758498939152
103.36770495237707
103.36810431074923
103.36940804497195
103.37356949775003
103.3865091316187
103.42553519017954
103.53907205858582
103.85548774092594
104.69281167179297
106.77345555991634
111.56152263527329
121.60165929366737
140.46963721084686
171.85960248206408
167.28610683444973
139.01987658268496
122.32409905231185
113.8617798172846
110.15339474317648
108.74038367127632
108.26556868221522
108.1226166828109
108.08341387266805
108.07346716281046
108.07109985359013
108.07056504850189
108.07044955232404
108.07042630365123
108.07042472143092
108.07043399731019
108.07046952935241
108.07059030438728
108.07099374647414
108.07231222408443
108.0765236198936
108.08963371689691
108.12923317431712
108.24466402568008
108.56718556776757
109.42359410966917
111.56153243345538
116.51264014873583
126.985153899226
146.89934093141667
180.54012336913263
170.8536505823546
144.53784834088268
129.57507225305028
122.32408557656548
119.35400920779418
118.30368531063215
117.97644501248767
117.8847091964962
117.86111326204882
117.85545149982741
117.85416629772018
117.85388907451761
117.85383205163005
117.8538201380552
117.85382079868533
117.853831557574
117.85386879716337
117.85399488973846
117.85441525200469
117.85579171454414
117.86019923979703
117.87396160439783
117.91567460993448
118.03777843432215
118.38070910803741
119.29702742476243
121.60166877425826
126.98516202560039
138.48182726711798
160.56956877801764
198.2640408974325
179.65588197043425
156.9626993524595
144.53783542114962
139.01986996247467
136.94192722101863
136.26474168575103
136.0689648021969
136.017552697235
136.0050453783162
136.00218151619885
136.00155667904613
136.00142530507048
136.00139884840522
136.00139572989048
136.00139787851728
136.0014098786896
136.0014521559652
136.00159856756997
136.00208836480735
136.0036933634351
136.00884742049251
136.02499075155745
136.07410116911
136.21843100428015
136.62544035051525
137.71706497563872
140.469640070577
146.89935767874863
160.56956855541063
186.53365440757733
230.27375950142286
198.30511336199638
179.6558606473507
170.85364291512735
167.28611008533017
166.0541711063913
165.68244620000857
165.58176838466179
165.5567183051638
165.5508847116119
165.54959519077133
165.54932405712233
165.54926925316954
165.5492581811067
165.5492568498655
165.54926261397026
165.5492817722221
165.5493494873675
165.54957637989807
165.55032930518226
165.55278710658757
165.56062973025425
165.58499725108769
165.65840880472592
165.87162580217486
166.46407970467743
168.02330896878487
171.85959407478117
180.54012434853428
198.26402531902653
230.273743173822
279.0308680917845
