# vtk DataFile Version 2.0
Unstructured Grid Example
ASCII
DATASET UNSTRUCTURED_GRID

POINTS 961 float
0.150000006 -0.00839745998 0
0.146666661 -0.00839745998 0
0.143333331 -0.00839745998 0
0.140000001 -0.00839745998 0
0.13666667 -0.00839745998 0
0.13333334 -0.00839745998 0
0.129999995 -0.00839745998 0
0.126666665 -0.00839745998 0
0.123333335 -0.00839745998 0
0.119999997 -0.00839745998 0
0.116666667 -0.00839745998 0
0.113333337 -0.00839745998 0
0.109999999 -0.00839745998 0
0.106666669 -0.00839745998 0
0.103333332 -0.00839745998 0
0.100000001 -0.00839745998 0
0.0966666639 -0.00839745998 0
0.0933333337 -0.00839745998 0
0.0900000036 -0.00839745998 0
0.086666666 -0.00839745998 0
0.0833333358 -0.00839745998 0
0.0799999982 -0.00839745998 0
0.0766666681 -0.00839745998 0
0.0733333305 -0.00839745998 0
0.0700000003 -0.00839745998 0
0.0666666701 -0.00839745998 0
0.0633333325 -0.00839745998 0
0.0599999987 -0.00839745998 0
0.0566666685 -0.00839745998 0
0.0533333346 -0.00839745998 0
0.0500000007 -0.00839745998 0
0.148333326 -0.0112842107 0
0.144999996 -0.0112842107 0
0.141666666 -0.0112842107 0
0.138333336 -0.0112842107 0
0.135000005 -0.0112842107 0
0.13166666 -0.0112842107 0
0.12833333 -0.0112842107 0
0.125 -0.0112842107 0
0.12166667 -0.0112842107 0
0.118333332 -0.0112842107 0
0.115000002 -0.0112842107 0
0.111666664 -0.0112842107 0
0.108333334 -0.0112842107 0
0.104999997 -0.0112842107 0
0.101666667 -0.0112842107 0
0.0983333364 -0.0112842107 0
0.0949999988 -0.0112842107 0
0.0916666687 -0.0112842107 0
0.088333331 -0.0112842107 0
0.0850000009 -0.0112842107 0
0.0816666633 -0.0112842107 0
0.0783333331 -0.0112842107 0
0.075000003 -0.0112842107 0
0.0716666654 -0.0112842107 0
0.0683333352 -0.0112842107 0
0.0649999976 -0.0112842107 0
0.0616666675 -0.0112842107 0
0.0583333336 -0.0112842107 0
0.0549999997 -0.0112842107 0
0.0516666658 -0.0112842107 0
0.0483333319 -0.0112842107 0
0.146666661 -0.0141709624 0
0.143333331 -0.0141709624 0
0.140000001 -0.0141709624 0
0.13666667 -0.0141709624 0
0.13333334 -0.0141709624 0
0.129999995 -0.0141709624 0
0.126666665 -0.0141709624 0
0.123333335 -0.0141709624 0
0.119999997 -0.0141709624 0
0.116666667 -0.0141709624 0
0.113333337 -0.0141709624 0
0.109999999 -0.0141709624 0
0.106666669 -0.0141709624 0
0.103333332 -0.0141709624 0
0.100000001 -0.0141709624 0
0.0966666639 -0.0141709624 0
0.0933333337 -0.0141709624 0
0.0900000036 -0.0141709624 0
0.086666666 -0.0141709624 0
0.0833333358 -0.0141709624 0
0.0799999982 -0.0141709624 0
0.0766666681 -0.0141709624 0
0.0733333305 -0.0141709624 0
0.0700000003 -0.0141709624 0
0.0666666701 -0.0141709624 0
0.0633333325 -0.0141709624 0
0.0599999987 -0.0141709624 0
0.0566666685 -0.0141709624 0
0.0533333346 -0.0141709624 0
0.0500000007 -0.0141709624 0
0.0466666669 -0.0141709624 0
0.144999996 -0.0170577131 0
0.141666666 -0.0170577131 0
0.138333336 -0.0170577131 0
0.135000005 -0.0170577131 0
0.13166666 -0.0170577131 0
0.12833333 -0.0170577131 0
0.125 -0.0170577131 0
0.12166667 -0.0170577131 0
0.118333332 -0.0170577131 0
0.115000002 -0.0170577131 0
0.111666664 -0.0170577131 0
0.108333334 -0.0170577131 0
0.104999997 -0.0170577131 0
0.101666667 -0.0170577131 0
0.0983333364 -0.0170577131 0
0.0949999988 -0.0170577131 0
0.0916666687 -0.0170577131 0
0.088333331 -0.0170577131 0
0.0850000009 -0.0170577131 0
0.0816666633 -0.0170577131 0
0.0783333331 -0.0170577131 0
0.075000003 -0.0170577131 0
0.0716666654 -0.0170577131 0
0.0683333352 -0.0170577131 0
0.0649999976 -0.0170577131 0
0.0616666675 -0.0170577131 0
0.0583333336 -0.0170577131 0
0.0549999997 -0.0170577131 0
0.0516666658 -0.0170577131 0
0.0483333319 -0.0170577131 0
0.0450000018 -0.0170577131 0
0.143333331 -0.0199444648 0
0.140000001 -0.0199444648 0
0.13666667 -0.0199444648 0
0.13333334 -0.0199444648 0
0.129999995 -0.0199444648 0
0.126666665 -0.0199444648 0
0.123333335 -0.0199444648 0
0.119999997 -0.0199444648 0
0.116666667 -0.0199444648 0
0.113333337 -0.0199444648 0
0.109999999 -0.0199444648 0
0.106666669 -0.0199444648 0
0.103333332 -0.0199444648 0
0.100000001 -0.0199444648 0
0.0966666639 -0.0199444648 0
0.0933333337 -0.0199444648 0
0.0900000036 -0.0199444648 0
0.086666666 -0.0199444648 0
0.0833333358 -0.0199444648 0
0.0799999982 -0.0199444648 0
0.0766666681 -0.0199444648 0
0.0733333305 -0.0199444648 0
0.0700000003 -0.0199444648 0
0.0666666701 -0.0199444648 0
0.0633333325 -0.0199444648 0
0.0599999987 -0.0199444648 0
0.0566666685 -0.0199444648 0
0.0533333346 -0.0199444648 0
0.0500000007 -0.0199444648 0
0.0466666669 -0.0199444648 0
0.043333333 -0.0199444648 0
0.141666666 -0.0228312165 0
0.138333336 -0.0228312165 0
0.135000005 -0.0228312165 0
0.13166666 -0.0228312165 0
0.12833333 -0.0228312165 0
0.125 -0.0228312165 0
0.12166667 -0.0228312165 0
0.118333332 -0.0228312165 0
0.115000002 -0.0228312165 0
0.111666664 -0.0228312165 0
0.108333334 -0.0228312165 0
0.104999997 -0.0228312165 0
0.101666667 -0.0228312165 0
0.0983333364 -0.0228312165 0
0.0949999988 -0.0228312165 0
0.0916666687 -0.0228312165 0
0.088333331 -0.0228312165 0
0.0850000009 -0.0228312165 0
0.0816666633 -0.0228312165 0
0.0783333331 -0.0228312165 0
0.075000003 -0.0228312165 0
0.0716666654 -0.0228312165 0
0.0683333352 -0.0228312165 0
0.0649999976 -0.0228312165 0
0.0616666675 -0.0228312165 0
0.0583333336 -0.0228312165 0
0.0549999997 -0.0228312165 0
0.0516666658 -0.0228312165 0
0.0483333319 -0.0228312165 0
0.0450000018 -0.0228312165 0
0.0416666679 -0.0228312165 0
0.140000001 -0.0257179681 0
0.13666667 -0.0257179681 0
0.13333334 -0.0257179681 0
0.129999995 -0.0257179681 0
0.126666665 -0.0257179681 0
0.123333335 -0.0257179681 0
0.119999997 -0.0257179681 0
0.116666667 -0.0257179681 0
0.113333337 -0.0257179681 0
0.109999999 -0.0257179681 0
0.106666669 -0.0257179681 0
0.103333332 -0.0257179681 0
0.100000001 -0.0257179681 0
0.0966666639 -0.0257179681 0
0.0933333337 -0.0257179681 0
0.0900000036 -0.0257179681 0
0.086666666 -0.0257179681 0
0.0833333358 -0.0257179681 0
0.0799999982 -0.0257179681 0
0.0766666681 -0.0257179681 0
0.0733333305 -0.0257179681 0
0.0700000003 -0.0257179681 0
0.0666666701 -0.0257179681 0
0.0633333325 -0.0257179681 0
0.0599999987 -0.0257179681 0
0.0566666685 -0.0257179681 0
0.0533333346 -0.0257179681 0
0.0500000007 -0.0257179681 0
0.0466666669 -0.0257179681 0
0.043333333 -0.0257179681 0
0.0399999991 -0.0257179681 0
0.138333336 -0.0286047198 0
0.135000005 -0.0286047198 0
0.13166666 -0.0286047198 0
0.12833333 -0.0286047198 0
0.125 -0.0286047198 0
0.12166667 -0.0286047198 0
0.118333332 -0.0286047198 0
0.115000002 -0.0286047198 0
0.111666664 -0.0286047198 0
0.108333334 -0.0286047198 0
0.104999997 -0.0286047198 0
0.101666667 -0.0286047198 0
0.0983333364 -0.0286047198 0
0.0949999988 -0.0286047198 0
0.0916666687 -0.0286047198 0
0.088333331 -0.0286047198 0
0.0850000009 -0.0286047198 0
0.0816666633 -0.0286047198 0
0.0783333331 -0.0286047198 0
0.075000003 -0.0286047198 0
0.0716666654 -0.0286047198 0
0.0683333352 -0.0286047198 0
0.0649999976 -0.0286047198 0
0.0616666675 -0.0286047198 0
0.0583333336 -0.0286047198 0
0.0549999997 -0.0286047198 0
0.0516666658 -0.0286047198 0
0.0483333319 -0.0286047198 0
0.0450000018 -0.0286047198 0
0.0416666679 -0.0286047198 0
0.038333334 -0.0286047198 0
0.13666667 -0.0314914696 0
0.13333334 -0.0314914696 0
0.129999995 -0.0314914696 0
0.126666665 -0.0314914696 0
0.123333335 -0.0314914696 0
0.119999997 -0.0314914696 0
0.116666667 -0.0314914696 0
0.113333337 -0.0314914696 0
0.109999999 -0.0314914696 0
0.106666669 -0.0314914696 0
0.103333332 -0.0314914696 0
0.100000001 -0.0314914696 0
0.0966666639 -0.0314914696 0
0.0933333337 -0.0314914696 0
0.0900000036 -0.0314914696 0
0.086666666 -0.0314914696 0
0.0833333358 -0.0314914696 0
0.0799999982 -0.0314914696 0
0.0766666681 -0.0314914696 0
0.0733333305 -0.0314914696 0
0.0700000003 -0.0314914696 0
0.0666666701 -0.0314914696 0
0.0633333325 -0.0314914696 0
0.0599999987 -0.0314914696 0
0.0566666685 -0.0314914696 0
0.0533333346 -0.0314914696 0
0.0500000007 -0.0314914696 0
0.0466666669 -0.0314914696 0
0.043333333 -0.0314914696 0
0.0399999991 -0.0314914696 0
0.0366666652 -0.0314914696 0
0.135000005 -0.0343782231 0
0.13166666 -0.0343782231 0
0.12833333 -0.0343782231 0
0.125 -0.0343782231 0
0.12166667 -0.0343782231 0
0.118333332 -0.0343782231 0
0.115000002 -0.0343782231 0
0.111666664 -0.0343782231 0
0.108333334 -0.0343782231 0
0.104999997 -0.0343782231 0
0.101666667 -0.0343782231 0
0.0983333364 -0.0343782231 0
0.0949999988 -0.0343782231 0
0.0916666687 -0.0343782231 0
0.088333331 -0.0343782231 0
0.0850000009 -0.0343782231 0
0.0816666633 -0.0343782231 0
0.0783333331 -0.0343782231 0
0.075000003 -0.0343782231 0
0.0716666654 -0.0343782231 0
0.0683333352 -0.0343782231 0
0.0649999976 -0.0343782231 0
0.0616666675 -0.0343782231 0
0.0583333336 -0.0343782231 0
0.0549999997 -0.0343782231 0
0.0516666658 -0.0343782231 0
0.0483333319 -0.0343782231 0
0.0450000018 -0.0343782231 0
0.0416666679 -0.0343782231 0
0.038333334 -0.0343782231 0
0.0350000001 -0.0343782231 0
0.13333334 -0.0372649729 0
0.129999995 -0.0372649729 0
0.126666665 -0.0372649729 0
0.123333335 -0.0372649729 0
0.119999997 -0.0372649729 0
0.116666667 -0.0372649729 0
0.113333337 -0.0372649729 0
0.109999999 -0.0372649729 0
0.106666669 -0.0372649729 0
0.103333332 -0.0372649729 0
0.100000001 -0.0372649729 0
0.0966666639 -0.0372649729 0
0.0933333337 -0.0372649729 0
0.0900000036 -0.0372649729 0
0.086666666 -0.0372649729 0
0.0833333358 -0.0372649729 0
0.0799999982 -0.0372649729 0
0.0766666681 -0.0372649729 0
0.0733333305 -0.0372649729 0
0.0700000003 -0.0372649729 0
0.0666666701 -0.0372649729 0
0.0633333325 -0.0372649729 0
0.0599999987 -0.0372649729 0
0.0566666685 -0.0372649729 0
0.0533333346 -0.0372649729 0
0.0500000007 -0.0372649729 0
0.0466666669 -0.0372649729 0
0.043333333 -0.0372649729 0
0.0399999991 -0.0372649729 0
0.0366666652 -0.0372649729 0
0.0333333351 -0.0372649729 0
0.13166666 -0.0401517227 0
0.12833333 -0.0401517227 0
0.125 -0.0401517227 0
0.12166667 -0.0401517227 0
0.118333332 -0.0401517227 0
0.115000002 -0.0401517227 0
0.111666664 -0.0401517227 0
[...]
POINT_DATA 961
SCALARS Temp float 1
LOOKUP_TABLE default
279.7587311776411
230.36846484438718
197.2361851344846
178.91472541646004
169.99226292258504
166.07587415743657
164.4940200518167
163.89595859946425
163.6815005678607
163.60783843100577
163.58342330188057
163.5755763559879
163.5731157699998
163.57236243602733
163.57213721845264
163.5720679297172
163.57204778875234
163.57204040142597
163.57204359533236
163.5720501441295
163.57208962666434
163.57228443436063
163.57322087133656
163.57758940522623
163.59691744694013
163.6771290045502
163.9836657934613
165.037337239484
168.20500988957724
176.3107405795898
194.22965272530135
233.61076359325097
187.84522734275032
160.60045652612192
146.2105534659759
139.4339074956171
136.53118113761806
135.37929560096248
134.94938754648652
134.7967239277066
134.74468681469298
134.72755080194207
134.72206820408078
134.72035822527292
134.71983628529233
134.7196778020705
134.71963427620295
134.71961989415203
134.7196181745103
134.7196201530921
134.71963975321216
134.71973829599364
134.72021651917981
134.72247364889174
134.7325546224898
134.775039314826
134.94109416772562
135.5310550546634
137.39009049844665
142.45252126717838
154.1151037831189
175.5415977488328
202.29704566113705
162.5787768419506
139.1749648887249
126.92946490219279
121.16852995543914
118.69218163285386
117.70396138573989
117.33286618712063
117.20031730124252
117.1549053622231
117.13988666462
117.13506287487915
117.13355474056327
117.13309217390331
117.1329543450026
117.1329123942366
117.13289955454114
117.13290020430559
117.13290723890509
117.13295351559368
117.13317420504944
117.13421816859046
117.13890572845327
117.15883996080633
117.23795033214903
117.52597152050818
118.46882887416416
121.18399304682019
127.91938862198964
141.98061780951042
167.11864235254893
184.5685316627027
149.13832893724637
128.01308353261197
116.82346342212598
111.49866960752782
109.18635422560813
108.25562550419592
107.90367598603379
107.7772697476655
107.7337759177929
107.71933847093655
107.71469072146313
107.71323298276502
107.71278537705606
107.71265221697031
107.71261203801546
107.71260205661767
107.71260212433846
107.71262065013401
107.71271454228746
107.71315716045636
107.71515475185163
107.72368091807485
107.75784442822324
107.8844434723097
108.31139844711268
109.59972024398517
113.02284099819975
120.92193583386927
136.7182665023451
163.87154454120105
175.6487026686644
142.7372770046211
122.7756284762694
112.05828691184475
106.90692594653221
104.65370844630081
103.74204664122023
103.39601582088574
103.27139995130102
103.22843650921672
103.21415414032577
103.20955139856316
103.20810629900647
103.20766339981446
103.2075297683505
103.20749032175581
103.20748109429996
103.20748519238829
103.20752217523697
103.20769784105053
103.2084906765292
103.21187978031665
103.22553818365746
103.27680301702443
103.45372859343543
104.00810900753217
105.56750574281155
109.46924142266471
118.09942503954787
134.80180677138648
162.81797701741868
171.59381763731216
139.96306908712776
120.52926107895811
110.00519327562095
104.9185460706977
102.68560551154414
101.78002229763244
101.43576078240027
101.3116511064996
101.26882938542767
101.25458741709895
101.24999547211398
101.24855357639102
101.24811143140647
101.2479782916068
101.24793977262688
101.24793112740174
101.24794206385944
101.24800735892904
101.24830400317084
101.24957396732461
101.25470705899173
101.27415162648396
101.34247981502176
101.56315753246798
102.21319495024385
103.94927658650707
108.1300629848913
117.12428799974512
134.20332283900515
162.52133668099123
169.90146526996264
138.85122160496184
119.63506666674357
109.1844292414584
104.12062268173683
101.89437401715394
100.9906732578831
100.6469306408873
100.52296099057818
100.48017699915529
100.4659452275021
100.46135598031756
100.45991504767694
100.45947277535201
100.45933989745025
100.45930176519316
100.45929537247716
100.45931593524722
100.45942111930385
100.45987392176018
100.46170770495053
100.46870125539031
100.49363074745916
100.57614003818048
100.82844153313818
101.53875410716265
103.37305933071647
107.68762145164877
116.82963787404005
134.0385270004322
162.4464553341839
169.24343769513536
138.4332928482836
119.30023066542319
108.87591027678377
103.8198018337842
101.5956904539459
100.69256002845296
100.34896673943496
100.22503514271574
100.18226127509912
100.16803196379922
100.16344342506252
100.1620026259227
100.16156047921824
100.16142786662205
100.16139029663324
100.16138706343847
100.16142023004025
100.16157437592408
100.16220232256742
100.16460971539637
100.17329080716067
100.2026054504466
100.29503456076836
100.56668907070845
101.30940805777664
103.18949933317676
107.55743534913698
116.74994941563438
133.99737538856647
162.42900983859036
169.00204734620448
138.28423386574977
119.18106674991418
108.7656852292784
103.7120729764334
101.48862083407835
100.58566354434045
100.24211267768594
100.11819145861777
100.07542022143659
100.06119153510286
100.05660319315362
100.05516239041386
100.05472032639445
100.05458791646458
100.0545513201197
100.05455198046434
100.05459997706326
100.05480671473413
100.05560531138114
100.05851321125532
100.06849859242567
100.10079467008059
100.19914560870482
100.48094749088003
101.23846389059369
103.13660034541819
107.52269887129945
116.73023988627546
133.98787477433055
162.4252245759178
168.91768478375113
138.23322906263252
119.14041248224703
108.72794125643213
103.67510912580859
101.4518539372169
100.54894589197018
100.20540611068719
100.0814881532125
100.0387174902361
100.02448901301732
100.01990070169656
100.01845992937824
100.01801794890416
100.0178858082301
100.01785038244402
100.01785539940872
100.0179187076388
100.0181747359766
100.01911726485187
100.02240068330515
100.03325098773718
100.06728932212901
100.16868541296205
100.45505190592932
101.21835386652774
103.12262691248085
107.51414380861625
116.72567939196965
133.9857796011295
162.42440710462265
168.88936439117018
138.21646576931627
119.12702011165473
108.7154657217987
103.66286193867099
101.43967354048932
100.53677967466345
100.1932429153599
100.0693258439075
100.02655532376029
100.01232690064661
100.00773859461428
100.006297855367
100.00585595905648
100.00572415924117
100.00568998830526
100.00569935051344
100.00577653943934
100.00607287308836
100.00712056515388
100.01064755216397
100.02199412340565
100.05691478354103
100.15966532018525
100.44780721703457
101.21307903797916
103.11919522135403
107.51217739835432
116.72469811411916
133.9853685734447
162.4242448591059
168.88004191681176
138.21112269810743
119.12274003703367
108.71146693922756
103.65892982328107
101.43575936867958
100.53286802746608
100.18933356269629
100.0654165284552
100.02264621537626
100.00841780836068
100.00382951337124
100.00238880944539
100.0019470138551
100.00181557474072
100.00178261449729
100.0017958008952
100.00188402730787
100.00220912461083
100.00332370402174
100.0069882577509
100.018582983131
100.05389278365628
100.15716890977232
100.44591744848303
101.2117864781211
103.11840263136446
107.51174464971923
116.72448858188436
133.98527486553303
162.42423841568132
168.87716475904637
138.20947790407223
119.12141608165064
108.71020326212883
103.65770170842171
101.43453523375551
100.53164378166286
100.188109642394
100.06419248275483
100.02142218485965
100.00719378116729
100.00260553638984
100.00116488767713
100.00072321673322
100.00059213028784
100.00056021945902
100.00057638133559
100.00067232215396
100.00101539741505
100.002167230558
100.00589985444641
100.01760337894379
100.05306391587779
100.15652011392305
100.44545363131672
101.21148586156343
103.11822964267844
107.51165631401759
116.72445021926576
133.98523964845228
162.42422149691942
168.87626826755093
138.2089676483811
119.12101063495278
108.70981804410842
103.65732515070549
101.43415666187875
100.5312690824372
100.18773455994734
100.06381791317934
100.02104770209532
100.00681938648044
100.00223126194936
100.00079074353587
100.00034925610296
100.00021851705257
100.00018744072446
100.00020566491581
100.00030636564466
100.00065933987912
100.00182945792116
100.00559178240263
100.01733744586626
100.05284999288756
100.15636180678754
100.44534708838395
101.21142051334331
103.11819317092055
107.51163754436455
116.72443890374764
133.98525924309186
162.42421849241111
168.8760144757012
138.20882905649307
119.12086192664287
108.70970813239474
103.65721574658296
101.43404487790602
100.53115757500588
100.18762273599268
100.0637063194254
100.02093638451557
100.00670850292589
100.00212077253389
100.00068062725376
100.00023949712276
100.0001091685417
100.0000787534321
100.00009828706293
100.0002016094575
100.0005594196433
100.00173749070146
100.00551134025271
100.01727158879228
100.05280025486303
100.15632761614269
100.44532583771716
101.2114099856003
103.1181897318687
107.5116390641983
116.72443217955978
133.98525630595404
162.424218926554
168.87592781728682
138.20878605524476
119.12082293248316
108.70967586168607
103.65717544662076
101.4340130963205
100.53112502702494
100.18759226765205
100.06367702928033
100.02090840646852
100.00668194086445
100.00209551220259
100.0006564724286
100.00021619531888
100.00008653300921
100.00005674812444
100.00007711317376
100.000181765326
100.00054170074132
100.00172287042797
100.00550073310973
100.0172655837119
100.05279888595021
100.15633041848848
100.44533167723304
101.21141781370547
103.11819873207463
107.51164755772112
116.72445564173519
133.98526405026635
162.4242454343726
168.87592557351093
138.20873279441247
119.12082646790239
108.70967652216889
103.65717067696454
101.4340101415536
100.53112364252881
100.18759459975121
100.0636837653127
100.02092020811428
100.00669845548443
100.00211604410042
100.00068006267408
100.0002418710364
100.00011352281439
100.00008457123015
100.00010557772708
100.00021091140921
100.00057171474664
100.00175398685111
100.00553312186706
100.01729928257099
100.05283377396854
100.156366184501
100.4453684879139
101.21145536752664
103.11823716525979
107.51168120974012
116.7244898255384
133.9853015613576
162.42429436099616
168.87593368103205
138.2087368334389
119.12083292229102
108.70966565967579
103.65718265326639
101.43402750749594
100.53115631833599
100.18764256563868
100.06374855406916
100.02100176999144
100.00679466293359
100.00222364042556
100.00079546799032
100.0003620562681
100.00023633906562
100.0002087298609
100.0002304278302
100.00033619227219
100.00069736095068
100.001880003761
100.00565952351513
100.01742605222869
100.05296088042412
100.15649347011869
100.44549584741968
101.2115827558743
103.11836398826333
107.5118156613603
116.72461806894385
133.98545230418958
162.42449932347932
168.87587569553753
138.20875483114742
119.12085916703629
108.70970121429555
103.65724708359444
101.43412824810838
100.53130621476534
100.18784865634754
100.06401301255113
100.02131856308559
100.00715305208084
100.00261117542534
100.00120104633427
100.00077756556456
100.00065673570938
100.00063130208105
100.00065390297526
100.00076004772608
100.001121410081
100.00230418490382
100.00608381260064
100.017850431076
100.05338531119466
100.15691813202773
100.44592083384363
101.21200851937269
103.11878900616946
107.51224461149268
116.72506166398793
133.98594262458695
162.4251685895906
168.87592661687322
138.20882678740477
119.12093140911432
108.70987731078797
103.65752439650478
101.43456264932445
100.5319226902215
100.18865922307192
100.06500562001675
100.0224599827485
100.00840114473114
100.00392638305969
100.00255361733089
100.00214861248837
100.00203594199621
100.00201375156102
100.00203752955882
100.00214407825595
100.0025055827931
100.00368841928919
100.00746808303217
100.01923472995963
100.05476959231562
100.15830235094735
100.44730495637734
101.21339235659573
103.12017718678844
107.51363582177957
116.7264930171597
133.9875241655416
162.42732638093094
168.8760469485516
138.20906636285022
119.12136169881647
108.7106275667786
103.65871973163485
101.43632613922995
100.5343179732257
100.19167067711722
100.0685362588518
100.0263716695423
100.01255727039184
100.00822039518121
100.00691642594954
100.00654191025579
100.00644131956436
100.00642344929928
100.00644863823082
100.00655561417302
100.00691724417756
100.00810011936184
100.01187979844062
100.02364645167845
100.05918140552022
100.16271437909802
100.45171771650456
101.21780662963486
103.12460036271419
107.51809491598516
116.73108702257163
133.99262784283223
162.4342551237743
168.8765930578412
138.21005379973678
119.12324837956753
108.71375921404331
103.66355456541064
101.4431378438589
100.54313508486196
100.2022434046815
100.08043383011201
100.03913734640945
100.0258202233207
100.02173412240812
100.02054190695662
100.02021167848596
100.02012684771547
100.02011406770042
100.02014077307877
100.02024817212481
100.02060991321595
100.0217928198851
100.02557251550792
100.03733919680742
100.0728742604597
100.17640769598133
100.4654127960445
101.23151066571113
103.13833290098479
107.53194827900397
116.74539093790894
134.00857268002673
162.455905593173
168.8790292994516
138.2145638335006
119.13109779513613
108.72634852366315
103.68202852214526
101.46788648451637
100.57360927065876
100.2371771404229
100.11835936681834
100.07880816432899
100.06638240688496
100.06269638000276
100.06166293409649
100.06138900196446
100.06132225764831
100.06131480366341
100.06134295194808
100.06145072700625
100.06181256598438
100.06299550446342
100.06677523507206
100.07854205608557
100.11407762687917
100.21761300091478
100.5066251583427
101.27275127066916
103.17968199199734
107.57370242467344
116.78862235917826
134.05695967225594
162.52139895628176
168.88889765085446
138.2327788466457
119.16183276909219
108.77368011521862
103.74805537632811
101.55177470744562
100.67193800414904
100.34546200961178
100.23257469869492
100.19609982990572
100.18506761147798
100.18193620979982
100.18109889860139
100.18088751513002
100.18083898076179
100.18083646921392
100.1808658943851
100.18097396856837
100.18133588488276
100.18251886109078
100.18629876202347
100.19806618910441
100.23360396467643
100.33714738582312
100.62618974940128
101.39242352526347
103.29974713222828
107.69516082153623
116.9148912376843
134.1991453726239
162.71312689312393
168.92808512208867
138.30257373339367
119.27502063642224
108.93918439165871
103.96640067704702
101.81472859594808
100.96663870794643
100.65953771871828
100.55689989555468
100.52512387648522
100.51597021375696
100.51350202244664
100.51287485945284
100.51272437460919
100.51269215512215
100.51269364279739
100.51272405136102
100.51283239356493
100.51319442813792
100.51437762600388
100.51815823786596
100.5299282584013
100.56547530864026
100.66905176721586
100.9582104697325
101.72484931015835
103.63356196853772
108.03364514011224
117.26857673269302
134.60005254642095
163.25116763579908
169.07264553484794
138.5510614489105
119.65901608331583
109.46944776697109
104.626657637789
102.57103529296754
101.7832750871538
101.50889565138515
101.42149862624736
101.39585794654386
101.38887064406254
101.38708552667373
101.38665443304893
101.38655569451637
101.38653641226985
101.3865411089597
101.38657218522677
101.38668070279499
101.38704287021206
101.3882270032176
101.39201083716625
101.40379199432562
101.43937773434072
101.5430872667532
101.83269528598213
102.60082591230677
104.51437880853581
108.92974471456075
118.21116194897556
135.6766243157607
164.68598929157528
169.56350049253368
139.3593191476133
120.83920311029608
111.00199359326426
106.43141432672951
104.55260355162417
103.8639659617204
103.63674625449842
103.5685279824063
103.54967275944622
103.5448175035568
103.54363970468515
103.54336900194434
103.54330979967736
103.54329925056956
103.54330602523726
103.54333779158807
103.54344677581778
103.5438101572271
103.54499805331379
103.54879519924413
103.56062236535851
103.59636563294508
103.70059826206226
103.99190505803541
104.76540073237267
106.69535501417771
111.15897558806644
120.57586069871513
138.3988395531676
168.27558881144589
171.0675161295985
141.7104024940891
124.06138553224031
114.93467029689529
110.84296736291553
109.24545691293063
108.69451099863706
108.52410982852527
108.47609849003433
108.46358974565163
108.46053435774023
108.45982744690454
108.45967052990655
108.45963792105034
108.45963414308491
108.45964213397808
108.4596742512266
108.45978399158439
108.46015228030927
108.46135674737315
108.46520962648778
108.47722412357804
108.51358436101908
108.61980162225055
108.91729284355422
109.7093456780902
111.69251419666128
116.30072614321111
126.0866852010947
144.78512657905864
176.555616555995
175.13500895676043
147.6914452753293
131.71814371056533
123.75560980139683
120.39942517723897
119.17574238327045
118.78224231171541
118.66838979518627
118.63819093597961
118.63072659733167
118.62898367058972
118.62859811082161
118.62851537089057
118.62849772698581
118.6284973609262
118.62850698071163
118.62854107556815
118.6286570840613
118.6290446786595
118.63031488386544
118.63438836219073
118.64712987890825
118.68580762023637
118.79919365527502
119.11802789806627
119.97066135165142
122.11584944323826
127.12672458272243
137.829776270144
158.43146879828842
193.78652939830803
184.64320566171207
160.74458724801676
147.17188777311642
140.94816842001862
138.5175724716553
137.6945973017665
137.44743221520983
137.3800949839372
137.36313285663468
137.35911700911777
137.35821454011895
137.3580181255465
137.35797747372254
137.35797178569857
137.35797330845358
137.35798411016623
137.35802358196926
137.35816360209168
137.3586305796029
137.36016139958107
137.36508087805336
137.38049705953688
137.42739029635888
137.56507125119148
137.95248941423077
138.9877611097503
141.58456231154165
147.61197985662636
160.34946506005832
184.45816232080475
225.34742124422226
204.21778197597925
183.8526712261763
173.97301296305992
169.7860249982368
168.26850780793052
167.7880517332788
167.65183869127313
167.61647592714422
167.60790875654206
167.605944576335
167.60551818717417
167.60542598026154
167.6054084545242
167.6054061464913
167.60541132626747
167.6054303781446
167.60549941936262
167.60573216743657
167.60650027858617
167.60900447093618
167.6169800612993
167.64167971239502
167.71575915350044
167.92954451241621
168.51842475629002
170.0507485011538
173.76911538411267
182.05629833664216
198.73765521630236
228.5452070510948
272.8829102643155
