# vtk DataFile Version 2.0
Unstructured Grid Example
ASCII
DATASET UNSTRUCTURED_GRID

POINTS 961 float
0.150000006 -0.00839745998 0
0.146666661 -0.00839745998 0
0.143333331 -0.00839745998 0
0.140000001 -0.00839745998 0
0.13666667 -0.00839745998 0
0.13333334 -0.00839745998 0
0.129999995 -0.00839745998 0
0.126666665 -0.00839745998 0
0.123333335 -0.00839745998 0
0.119999997 -0.00839745998 0
0.116666667 -0.00839745998 0
0.113333337 -0.00839745998 0
0.109999999 -0.00839745998 0
0.106666669 -0.00839745998 0
0.103333332 -0.00839745998 0
0.100000001 -0.00839745998 0
0.0966666639 -0.00839745998 0
0.0933333337 -0.00839745998 0
0.0900000036 -0.00839745998 0
0.086666666 -0.00839745998 0
0.0833333358 -0.00839745998 0
0.0799999982 -0.00839745998 0
0.0766666681 -0.00839745998 0
0.0733333305 -0.00839745998 0
0.0700000003 -0.00839745998 0
0.0666666701 -0.00839745998 0
0.0633333325 -0.00839745998 0
0.0599999987 -0.00839745998 0
0.0566666685 -0.00839745998 0
0.0533333346 -0.00839745998 0
0.0500000007 -0.00839745998 0
0.148333326 -0.0112842107 0
0.144999996 -0.0112842107 0
0.141666666 -0.0112842107 0
0.138333336 -0.0112842107 0
0.135000005 -0.0112842107 0
0.13166666 -0.0112842107 0
0.12833333 -0.0112842107 0
0.125 -0.0112842107 0
0.12166667 -0.0112842107 0
0.118333332 -0.0112842107 0
0.115000002 -0.0112842107 0
0.111666664 -0.0112842107 0
0.108333334 -0.0112842107 0
0.104999997 -0.0112842107 0
0.101666667 -0.0112842107 0
0.0983333364 -0.0112842107 0
0.0949999988 -0.0112842107 0
0.0916666687 -0.0112842107 0
0.088333331 -0.0112842107 0
0.0850000009 -0.0112842107 0
0.0816666633 -0.0112842107 0
0.0783333331 -0.0112842107 0
0.075000003 -0.0112842107 0
0.0716666654 -0.0112842107 0
0.0683333352 -0.0112842107 0
0.0649999976 -0.0112842107 0
0.0616666675 -0.0112842107 0
0.0583333336 -0.0112842107 0
0.0549999997 -0.0112842107 0
0.0516666658 -0.0112842107 0
0.0483333319 -0.0112842107 0
0.146666661 -0.0141709624 0
0.143333331 -0.0141709624 0
0.140000001 -0.0141709624 0
0.13666667 -0.0141709624 0
0.13333334 -0.0141709624 0
0.129999995 -0.0141709624 0
0.126666665 -0.0141709624 0
0.123333335 -0.0141709624 0
0.119999997 -0.0141709624 0
0.116666667 -0.0141709624 0
0.113333337 -0.0141709624 0
0.109999999 -0.0141709624 0
0.106666669 -0.0141709624 0
0.103333332 -0.0141709624 0
0.100000001 -0.0141709624 0
0.0966666639 -0.0141709624 0
0.0933333337 -0.0141709624 0
0.0900000036 -0.0141709624 0
0.086666666 -0.0141709624 0
0.0833333358 -0.0141709624 0
0.0799999982 -0.0141709624 0
0.0766666681 -0.0141709624 0
0.0733333305 -0.0141709624 0
0.0700000003 -0.0141709624 0
0.0666666701 -0.0141709624 0
0.0633333325 -0.0141709624 0
0.0599999987 -0.0141709624 0
0.0566666685 -0.0141709624 0
0.0533333346 -0.0141709624 0
0.0500000007 -0.0141709624 0
0.0466666669 -0.0141709624 0
0.144999996 -0.0170577131 0
0.141666666 -0.0170577131 0
0.138333336 -0.0170577131 0
0.135000005 -0.0170577131 0
0.13166666 -0.0170577131 0
0.12833333 -0.0170577131 0
0.125 -0.0170577131 0
0.12166667 -0.0170577131 0
0.118333332 -0.0170577131 0
0.115000002 -0.0170577131 0
0.111666664 -0.0170577131 0
0.108333334 -0.0170577131 0
0.104999997 -0.0170577131 0
0.101666667 -0.0170577131 0
0.0983333364 -0.0170577131 0
0.0949999988 -0.0170577131 0
0.0916666687 -0.0170577131 0
0.088333331 -0.0170577131 0
0.0850000009 -0.0170577131 0
0.0816666633 -0.0170577131 0
0.0783333331 -0.0170577131 0
0.075000003 -0.0170577131 0
0.0716666654 -0.0170577131 0
0.0683333352 -0.0170577131 0
0.0649999976 -0.0170577131 0
0.0616666675 -0.0170577131 0
0.0583333336 -0.0170577131 0
0.0549999997 -0.0170577131 0
0.0516666658 -0.0170577131 0
0.0483333319 -0.0170577131 0
0.0450000018 -0.0170577131 0
0.143333331 -0.0199444648 0
0.140000001 -0.0199444648 0
0.13666667 -0.0199444648 0
0.13333334 -0.0199444648 0
0.129999995 -0.0199444648 0
0.126666665 -0.0199444648 0
0.123333335 -0.0199444648 0
0.119999997 -0.0199444648 0
0.116666667 -0.0199444648 0
0.113333337 -0.0199444648 0
0.109999999 -0.0199444648 0
0.106666669 -0.0199444648 0
0.103333332 -0.0199444648 0
0.100000001 -0.0199444648 0
0.0966666639 -0.0199444648 0
0.0933333337 -0.0199444648 0
0.0900000036 -0.0199444648 0
0.086666666 -0.0199444648 0
0.0833333358 -0.0199444648 0
0.0799999982 -0.0199444648 0
0.0766666681 -0.0199444648 0
0.0733333305 -0.0199444648 0
0.0700000003 -0.0199444648 0
0.0666666701 -0.0199444648 0
0.0633333325 -0.0199444648 0
0.0599999987 -0.0199444648 0
0.0566666685 -0.0199444648 0
0.0533333346 -0.0199444648 0
0.0500000007 -0.0199444648 0
0.0466666669 -0.0199444648 0
0.043333333 -0.0199444648 0
0.141666666 -0.0228312165 0
0.138333336 -0.0228312165 0
0.135000005 -0.0228312165 0
0.13166666 -0.0228312165 0
0.12833333 -0.0228312165 0
0.125 -0.0228312165 0
0.12166667 -0.0228312165 0
0.118333332 -0.0228312165 0
0.115000002 -0.0228312165 0
0.111666664 -0.0228312165 0
0.108333334 -0.0228312165 0
0.104999997 -0.0228312165 0
0.101666667 -0.0228312165 0
0.0983333364 -0.0228312165 0
0.0949999988 -0.0228312165 0
0.0916666687 -0.0228312165 0
0.088333331 -0.0228312165 0
0.0850000009 -0.0228312165 0
0.0816666633 -0.0228312165 0
0.0783333331 -0.0228312165 0
0.075000003 -0.0228312165 0
0.0716666654 -0.0228312165 0
0.0683333352 -0.0228312165 0
0.0649999976 -0.0228312165 0
0.0616666675 -0.0228312165 0
0.0583333336 -0.0228312165 0
0.0549999997 -0.0228312165 0
0.0516666658 -0.0228312165 0
0.0483333319 -0.0228312165 0
0.0450000018 -0.0228312165 0
0.0416666679 -0.0228312165 0
0.140000001 -0.0257179681 0
0.13666667 -0.0257179681 0
0.13333334 -0.0257179681 0
0.129999995 -0.0257179681 0
0.126666665 -0.0257179681 0
0.123333335 -0.0257179681 0
0.119999997 -0.0257179681 0
0.116666667 -0.0257179681 0
0.113333337 -0.0257179681 0
0.109999999 -0.0257179681 0
0.106666669 -0.0257179681 0
0.103333332 -0.0257179681 0
0.100000001 -0.0257179681 0
0.0966666639 -0.0257179681 0
0.0933333337 -0.0257179681 0
0.0900000036 -0.0257179681 0
0.086666666 -0.0257179681 0
0.0833333358 -0.0257179681 0
0.0799999982 -0.0257179681 0
0.0766666681 -0.0257179681 0
0.0733333305 -0.0257179681 0
0.0700000003 -0.0257179681 0
0.0666666701 -0.0257179681 0
0.0633333325 -0.0257179681 0
0.0599999987 -0.0257179681 0
0.0566666685 -0.0257179681 0
0.0533333346 -0.0257179681 0
0.0500000007 -0.0257179681 0
0.0466666669 -0.0257179681 0
0.043333333 -0.0257179681 0
0.0399999991 -0.0257179681 0
0.138333336 -0.0286047198 0
0.135000005 -0.0286047198 0
0.13166666 -0.0286047198 0
0.12833333 -0.0286047198 0
0.125 -0.0286047198 0
0.12166667 -0.0286047198 0
0.118333332 -0.0286047198 0
0.115000002 -0.0286047198 0
0.111666664 -0.0286047198 0
0.108333334 -0.0286047198 0
0.104999997 -0.0286047198 0
0.101666667 -0.0286047198 0
0.0983333364 -0.0286047198 0
0.0949999988 -0.0286047198 0
0.0916666687 -0.0286047198 0
0.088333331 -0.0286047198 0
0.0850000009 -0.0286047198 0
0.0816666633 -0.0286047198 0
0.0783333331 -0.0286047198 0
0.075000003 -0.0286047198 0
0.0716666654 -0.0286047198 0
0.0683333352 -0.0286047198 0
0.0649999976 -0.0286047198 0
0.0616666675 -0.0286047198 0
0.0583333336 -0.0286047198 0
0.0549999997 -0.0286047198 0
0.0516666658 -0.0286047198 0
0.0483333319 -0.0286047198 0
0.0450000018 -0.0286047198 0
0.0416666679 -0.0286047198 0
0.038333334 -0.0286047198 0
0.13666667 -0.0314914696 0
0.13333334 -0.0314914696 0
0.129999995 -0.0314914696 0
0.126666665 -0.0314914696 0
0.123333335 -0.0314914696 0
0.119999997 -0.0314914696 0
0.116666667 -0.0314914696 0
0.113333337 -0.0314914696 0
0.109999999 -0.0314914696 0
0.106666669 -0.0314914696 0
0.103333332 -0.0314914696 0
0.100000001 -0.0314914696 0
0.0966666639 -0.0314914696 0
0.0933333337 -0.0314914696 0
0.0900000036 -0.0314914696 0
0.086666666 -0.0314914696 0
0.0833333358 -0.0314914696 0
0.0799999982 -0.0314914696 0
0.0766666681 -0.0314914696 0
0.0733333305 -0.0314914696 0
0.0700000003 -0.0314914696 0
0.0666666701 -0.0314914696 0
0.0633333325 -0.0314914696 0
0.0599999987 -0.0314914696 0
0.0566666685 -0.0314914696 0
0.0533333346 -0.0314914696 0
0.0500000007 -0.0314914696 0
0.0466666669 -0.0314914696 0
0.043333333 -0.0314914696 0
0.0399999991 -0.0314914696 0
0.0366666652 -0.0314914696 0
0.135000005 -0.0343782231 0
0.13166666 -0.0343782231 0
0.12833333 -0.0343782231 0
0.125 -0.0343782231 0
0.12166667 -0.0343782231 0
0.118333332 -0.0343782231 0
0.115000002 -0.0343782231 0
0.111666664 -0.0343782231 0
0.108333334 -0.0343782231 0
0.104999997 -0.0343782231 0
0.101666667 -0.0343782231 0
0.0983333364 -0.0343782231 0
0.0949999988 -0.0343782231 0
0.0916666687 -0.0343782231 0
0.088333331 -0.0343782231 0
0.0850000009 -0.0343782231 0
0.0816666633 -0.0343782231 0
0.0783333331 -0.0343782231 0
0.075000003 -0.0343782231 0
0.0716666654 -0.0343782231 0
0.0683333352 -0.0343782231 0
0.0649999976 -0.0343782231 0
0.0616666675 -0.0343782231 0
0.0583333336 -0.0343782231 0
0.0549999997 -0.0343782231 0
0.0516666658 -0.0343782231 0
0.0483333319 -0.0343782231 0
0.0450000018 -0.0343782231 0
0.0416666679 -0.0343782231 0
0.038333334 -0.0343782231 0
0.0350000001 -0.0343782231 0
0.13333334 -0.0372649729 0
0.129999995 -0.0372649729 0
0.126666665 -0.0372649729 0
0.123333335 -0.0372649729 0
0.119999997 -0.0372649729 0
0.116666667 -0.0372649729 0
0.113333337 -0.0372649729 0
0.109999999 -0.0372649729 0
0.106666669 -0.0372649729 0
0.103333332 -0.0372649729 0
0.100000001 -0.0372649729 0
0.0966666639 -0.0372649729 0
0.0933333337 -0.0372649729 0
0.0900000036 -0.0372649729 0
0.086666666 -0.0372649729 0
0.0833333358 -0.0372649729 0
0.0799999982 -0.0372649729 0
0.0766666681 -0.0372649729 0
0.0733333305 -0.0372649729 0
0.0700000003 -0.0372649729 0
0.0666666701 -0.0372649729 0
0.0633333325 -0.0372649729 0
0.0599999987 -0.0372649729 0
0.0566666685 -0.0372649729 0
0.0533333346 -0.0372649729 0
0.0500000007 -0.0372649729 0
0.0466666669 -0.0372649729 0
0.043333333 -0.0372649729 0
0.0399999991 -0.0372649729 0
0.0366666652 -0.0372649729 0
0.0333333351 -0.0372649729 0
0.13166666 -0.0401517227 0
0.12833333 -0.0401517227 0
0.125 -0.0401517227 0
0.12166667 -0.0401517227 0
0.118333332 -0.0401517227 0
0.115000002 -0.0401517227 0
0.111666664 -0.0401517227 0
[...]
POINT_DATA 961
SCALARS Temp float 1
LOOKUP_TABLE default
297.08611639830656
247.03886204827225
211.71684883983366
190.6260004212223
179.3885442509746
173.9601827458714
171.54648429411648
170.5449381782334
170.15257222942824
170.0060713291341
169.9535473193309
169.93536365349598
169.92925204904566
169.92725217234639
169.92661350579132
169.92641093289214
169.9263488392954
169.92632946206083
169.92633246737884
169.92635760501435
169.9264865494215
169.92707383676776
169.92963715101277
169.94031388544937
169.98214471914915
170.13438981614507
170.6407398879643
172.1513188652907
176.11734114502661
185.139993789478
203.32903378550225
249.95804386875997
203.18243461738942
173.461119803388
156.45024672380734
147.6777747736711
143.54642571131458
141.74516467589552
141.00898231742352
140.72396978708937
140.6185547887947
140.58105774855105
140.56815756916913
140.56384758609587
140.562443714884
140.56199466828767
140.5618574922278
140.56181423607686
140.56180544752687
140.5618150774632
140.56188137127194
140.56218941325724
140.56354912061204
140.5692909816883
140.59214734793176
140.67716673808343
140.96829702758578
141.87092517234936
144.36008548800655
150.36423493129982
162.88520657736296
184.429078709431
216.46467023582375
175.37859813145556
149.64234699380899
135.09635361416298
127.62914168210229
124.11136709075858
122.57274538018008
121.94103661660525
121.69525726576553
121.60392013429687
121.57129101095377
121.56002164846163
121.55624500004859
121.55501036080818
121.55461714315264
121.5544930835471
121.55445531461153
121.55445282651947
121.55448038513623
121.55462782833692
121.55528121810411
121.55806305526943
121.56926670300815
121.61163501988688
121.76015372189526
122.23584297431063
123.60665148468064
127.10677701991567
134.91691441249947
149.9045390943369
175.08079307608554
196.11860936437785
159.38010908144557
136.22532996127777
123.0279799196476
116.18925604424625
112.93714250649768
111.5023633564403
110.9088555092856
110.6764860332582
110.58968907210709
110.5585480363346
110.54775795509053
110.5441303859577
110.54294196018036
110.54256339276051
110.5424442976919
110.54241144087638
110.54241399563053
110.5424760659851
110.54276560519601
110.54400548317295
110.54904599196236
110.5683326777511
110.63717948731328
110.86361960308214
111.5411384695009
113.36205622525122
117.70799128755338
126.83063448750427
143.68144795680715
171.00772755469754
184.99511114921506
151.05176252835912
129.35132448445518
116.82414984215116
110.26457559787913
107.11957954239077
105.72332451907636
105.14300072672226
104.91498029145643
104.82957677928106
104.79887254980844
104.78821724765763
104.78463029013126
104.78345525677163
104.78307876476774
104.78296156385109
104.7829319379876
104.78294767706191
104.78306578039926
104.78358224864826
104.78569539215351
104.7938522459317
104.82337979011473
104.92260581939716
105.22895783797192
106.08940778062455
108.26876275332664
113.21083646902638
123.20253978055746
141.1149240257254
169.48196597864404
179.46049683203344
147.0875338798883
126.11858035036877
113.89578637216167
107.4517847616548
104.34755561564342
102.96490880250401
102.38894449099786
102.16228076772785
102.0772887081209
102.04670866810038
102.03608955625042
102.03251342372762
102.03134150394308
102.03096635297102
102.0308512061972
102.03082549914689
102.03086226364546
102.03106320471184
102.0318978765162
102.03514461322573
102.04702442181143
102.0876454998493
102.21637493582267
102.59164498119247
103.59157301949571
106.01388144221653
111.32323846546667
121.78578097764427
140.19435751265448
168.98251353196224
176.92584925757419
145.3421044846125
124.7076147477572
112.61271782773528
106.21367544154835
103.12423063753795
101.74620685134164
101.17164110027342
100.94538849238369
100.86051556087574
100.82996978788742
100.81936036507437
100.8157873186246
100.81461579537401
100.81424137099792
100.81412791028764
100.81410953514666
100.81417549931551
100.81448696987822
100.81571418399892
100.82024542949577
100.83596120079886
100.88686250158314
101.03997633652482
101.46583410993915
102.55692765592755
105.12185955441326
110.621961018292
121.29775860613093
139.9022100380013
168.83658286958382
175.845459122179
144.6231917181586
124.12984831516879
112.08532443532312
105.70286965487604
102.61857040843908
101.24206914586507
100.66794022860117
100.4418092720915
100.35697059548015
100.32643397551853
100.31582717780127
100.31225480975361
100.3110836717943
100.31071003737438
100.31059882184533
100.31059035192621
100.31069309938896
100.31113466432163
100.31278631068211
100.31858467662167
100.33771322486953
100.39680235190266
100.56722995432867
101.02512441033552
102.16786276725271
104.8044657865201
110.388773879359
121.14712658212719
139.81855180150404
168.79766840039736
175.41233425043873
144.34337255485596
123.90584132629314
111.88003888959655
105.50343391284399
102.42085713372937
101.04484931576535
100.47085417601855
100.24475891460493
100.15992982838895
100.12939568809963
100.11878962253924
100.11521738265502
100.11404651953757
100.11367367153616
100.11356565712322
100.11356906932001
100.1137133854817
100.1142900845384
100.11634420655584
100.12322996154937
100.14498964359069
100.20972603193403
100.39082598016213
100.86637143055033
102.03440830651398
104.70202235539529
110.3184659104466
121.10478823696896
139.79656952928556
168.7880661101144
175.24756313794734
144.23946182527487
123.82293381713043
111.80377077834069
105.42914761323811
102.34712910381383
100.9712738158327
100.39731755560771
100.17123342909235
100.08640679874908
100.05587343142213
100.0452675338203
100.04169540786795
100.04052483719144
100.04015295594891
100.04004866803083
100.04006494076133
100.04025087724452
100.04095125260139
100.04333993658388
100.0510402977175
100.07456897701047
100.14270615191131
100.32955646837071
100.8135799903657
101.99239812525843
104.67172834271197
110.2989804695473
121.09375949763361
139.79114826862192
168.78579624539515
175.18760978865606
144.20249460395524
123.79343673685082
111.7765397626584
105.40255502594547
102.32072480062277
100.9449163578565
100.37097158202253
100.14489062676554
100.0600646730307
100.02953151706993
100.0189256676649
100.01535365847408
100.0141833995662
100.01381265514497
100.01371225448229
100.01374099290324
100.01396386139125
100.01476410263113
100.01739705720097
100.0256328337238
100.05020562033283
100.12014238915837
100.30971187004982
100.79730656379556
101.98016913798406
104.66342910599825
110.29396273559138
121.09108523462184
139.78991698306208
168.78529369608788
175.16647678411823
144.18979244090676
123.78329603133179
111.76714813578528
105.39336651780614
102.31159230783159
100.93579557599743
100.36185648303292
100.13577606290498
100.05095062961084
100.02041755060064
100.00981175539651
100.0062398765628
100.00506997499251
100.00470040262785
100.00460366231576
100.00464316335862
100.0048950845003
100.00576658892622
100.00855690519055
100.01710325960805
100.04222017280921
100.11299738892647
100.30370291620139
100.79263188408231
101.97685137889515
104.66130149831024
110.29274075924849
121.09046119499831
139.78963254287845
168.78521276132548
175.15937985274792
144.18557258737277
123.77992192979588
111.76398685993685
105.39028809408698
102.30852946860855
100.93273520023646
100.35879723121259
100.132716786934
100.0478914551774
100.01735843637957
100.00675280866945
100.00318113174123
100.00201165719031
100.00164321025312
100.00154959253541
100.00159739407786
100.00186963554334
100.00278623716501
100.0056664409754
100.01437257665444
100.03974118268029
100.11086712773594
100.30199559894189
100.79137187042069
101.97600297273155
104.66078794193237
110.29246201469692
121.09032816374544
139.7895548098578
168.78518104663135
175.15703043111967
144.18419140755682
123.77882207299204
111.76295767105084
105.38928145978005
102.30752282930753
100.93173500764665
100.35779665976189
100.13171729226177
100.04689229083634
100.0163596106711
100.00575439448455
100.0021831624369
100.00101429449347
100.00064694315006
100.00055579781949
100.00060936917373
100.00089430775097
100.0018363486481
100.00476232439809
100.01354177089738
100.03901432089928
100.11027019039355
100.30154113848212
100.79105469624423
101.97580073882084
104.66067108285172
110.29240113104957
121.09029777641508
139.78956890682102
168.7851777785505
175.15629234819542
144.1837674703564
123.77844235587169
111.76263643699906
105.38896500691085
102.30720467900974
100.93141781511382
100.35747951429585
100.13140106144171
100.04657710497172
100.01604580234856
100.00544185794293
100.0018718108885
100.00070406698153
100.000337988373
100.00024881438385
100.00030610769264
100.00059821426964
100.00155313069352
100.00449998372969
100.0133096370073
100.0388208488181
100.11012044929197
100.30143502830896
100.79098676213033
101.97576432860068
104.66065640550728
110.29240079029555
121.09029276313994
139.7895722391233
168.78518854006745
175.15604918710613
144.18363302042783
123.77833076770966
111.76253684917548
105.38885670686048
102.30710902327344
100.93132236549589
100.35738905023958
100.13131442935128
100.04649464958884
100.01596766415513
100.00536762762829
100.0018008557355
100.00063563985044
100.00027155096087
100.00018425970846
100.00024398020396
100.00053985982771
100.00150070288456
100.00445616633644
100.01327707371402
100.03880143576161
100.11011465585986
100.30144185524219
100.79100349528974
101.9757881862765
104.66068491047295
110.29243092859461
121.09034147306333
139.78960667543848
168.7852523718888
175.1559978683676
144.18355067142664
123.77831472236174
111.76252169290132
105.38883910108578
102.30709805780769
100.9313190040747
100.35739739369339
100.13133617863303
100.04653099047728
100.01601741108617
100.00542864143071
100.00187040301107
100.0007110401592
100.00035070201629
100.00026585019128
100.00032748274933
100.00062538768485
100.00158879289341
100.00454752401222
100.01337226886045
100.03890069582758
100.11021775633081
100.30154807563167
100.79111279195082
101.975899619059
104.6607982840593
110.2925391152928
121.09045344245256
139.7897307211415
168.78541937533063
175.15599229589114
144.18355145149903
123.7783250267179
111.76252004269239
105.38887707773983
102.307158442602
100.93141998034234
100.357541777957
100.13152703666213
100.0467669345117
100.01629214348183
100.00573333819487
100.00219573570043
100.00104918622013
100.00069607647636
100.00061504484572
100.00067873268685
100.00097796653922
100.00194251928525
100.00490243069001
100.01372841915806
100.03925806136051
100.110576235757
100.3019072899131
100.79147249559468
101.97625971843802
104.66115833374204
110.29291045661876
121.0908244164084
139.79015251744082
168.78599121281445
175.15594140799283
144.18359204002977
123.7783959286919
111.7626344348867
105.38907099580427
102.30745625149862
100.93184977988346
100.35811827210867
100.13225131176902
100.04762172570256
100.01724993258495
100.00676356248086
100.00327145359437
100.00215055816956
100.0018105075423
100.00173554793625
100.0018018940157
100.00210231708819
100.00306750845007
100.00602787097284
100.01485423976159
100.04038421005025
100.11170262278482
100.303034220776
100.79260010212107
101.97738884903244
104.66228781246173
110.29405104247999
121.0920040622374
139.7914645182021
168.7877696662919
175.15604838608945
144.18377147522696
123.77865723709708
111.7631341586653
105.38985338375373
102.30863160740074
100.93347318527137
100.36020555396892
100.13476476194909
100.05048066662661
100.0203573753062
100.01002972833273
100.00662825617493
100.00555378171346
100.00523516504268
100.00516919168182
100.00523900493842
100.00554070089653
100.00650637356364
100.00946695722558
100.01829346007014
100.04382353657445
100.11514196579644
100.30647356437989
100.79603964381855
101.98082935916388
104.66573934542727
110.29752563495136
121.09559637338799
139.7954679615573
168.79318728682557
175.15640383539986
144.18444410643184
123.7798419076777
111.76511179605465
105.3929037323981
102.31299431259468
100.93925062196013
100.36733138058223
100.1430161908475
100.05956095229524
100.02997782437447
100.01996319655717
100.01672380899153
100.01572462983891
100.01543756896123
100.01538361885022
100.01545763734383
100.01576070352354
100.01672680914885
100.01968753706966
100.02851410315138
100.05404422682574
100.1253629178172
100.31669518908977
100.8062635846385
101.99105987490408
104.67599877084899
110.3078911090188
121.1063349453166
139.80748836101588
168.8093859964945
175.15787021877728
144.18708765608744
123.78452841660823
111.77262927947119
105.40409637137401
102.32832098503714
100.95866830409629
100.39028848904472
100.16865219803248
100.08698182748064
100.05845082167895
100.04898810282921
100.0460072961375
100.04511691442391
100.04487127432517
100.04483171104538
100.04491034619532
100.04521479925529
100.04618129982265
100.04914214876132
100.05796878655589
100.08349904723234
100.15481823581707
100.34615239902372
100.83572770772506
102.02055224392072
104.70558417226101
110.33781955044478
121.1374339140996
139.8424407380935
168.85638187067613
175.16370958105458
144.19756417319135
123.80209537016255
111.799809799735
105.44273680910244
102.37883741526393
101.01986903695335
100.45983154365183
100.24389175084075
100.16564745468744
100.1389410986718
100.13034228505987
100.12772701147887
100.12697596237803
100.1267786690461
100.1267545181457
100.1268376933477
100.12714341879682
100.12811027227198
100.13107124983769
100.13989805444002
100.16542889940472
100.23675012471107
100.42809159646671
100.91769236567946
102.10260889094029
104.78796216723187
110.42128869386273
121.2244895817683
139.94073774934012
168.9879886313901
175.18532274647936
144.23566882761833
123.86385754670341
111.89152611175481
105.56713344801068
102.53393873246632
101.19983014778005
100.65725683818535
100.45206538570648
100.37965065916346
100.355740207526
100.34833336560315
100.34617365205864
100.34558042100902
100.34543316955003
100.34542377168681
100.34551105545181
100.34581784582339
100.34678500699336
100.34974620097054
100.35857369136188
100.38410688344409
100.45543624077055
100.64680571205818
101.13650329332145
102.32174247355735
105.00816934596186
110.64495498822563
121.45891002773035
140.20698525853697
169.34256533293112
175.26166483294148
144.36575009924252
124.06645632851804
112.17828576657998
105.93715794719209
102.97424899246977
101.69115966811864
101.18083571277592
100.99353125006232
100.92983360054056
100.90967596623179
100.9037096278706
100.90204887069552
100.90161378203136
100.90151284452091
100.90151599186702
100.90160657444233
100.90191428271206
100.90288188307221
100.90584393641177
100.91467416812948
100.94021674192783
101.01157778215942
101.20305283648031
101.69309665352012
102.87944895153676
105.56936957540245
111.21679540505713
122.06185164425682
140.89605742249256
170.25394155562188
175.51145138726332
144.77608960582097
124.67686765530797
112.9990745969947
106.94440198380124
104.12210217654194
102.93072962087327
102.4727047211099
102.31140787867852
102.25905080748142
102.24327575377421
102.23883024646145
102.23765035242607
102.23735515466083
102.23729242782011
102.23730564601983
102.23739866233166
102.2377071428793
102.23867563308876
102.24164104505256
102.25048245339673
102.27606200484232
102.34754408379246
102.53940820641135
103.03067254067331
104.22075876107131
106.92174675192693
112.60077666576751
123.53194623017929
142.58698737360976
172.46902183722167
176.26056860398384
145.9556159374896
126.34360163069331
115.12383961189408
109.43019754675821
106.85211984046029
105.80501886582667
105.42061613200944
105.2919609003261
105.25233825164231
105.2410004145557
105.23795769028185
105.23718688903416
105.2370027406587
105.2369678652136
105.23698805296797
105.2370832068224
105.23739328343336
105.23836591382633
105.24134438507981
105.25022909449662
105.2759493752768
105.34788002023153
105.5411320776705
106.03656616386256
107.23874853531444
109.97342896957606
115.74196541133536
126.89800502907045
146.4808127308716
177.50071909620706
178.28858447555567
148.99687587502405
130.40958099525864
120.04015536695982
114.94506572537041
112.73784229059822
111.88634952646466
111.59056494044181
111.49694622071185
111.46962574265457
111.46218960114061
111.46028356675619
111.45981917673102
111.4597134867057
111.45969872059949
111.45972358121374
111.45982075664769
111.46013502418096
111.46112346850704
111.46415335351921
111.47320281335504
111.4994422673965
111.57296652930455
111.77096322059334
112.28000282820157
113.5195031747214
116.35132712816336
122.3578398751072
134.0579762793693
154.79148367871935
188.03289823259817
183.1703875972651
155.9275642192271
139.1499769437853
130.09637366097184
125.87626517057598
124.15027270471232
123.52289338734525
123.3173592284928
123.25580574722113
123.23872591835476
123.23428170945718
123.23318943122412
123.2329327592969
123.23287616164883
123.23287326511131
123.23290281093493
123.23300628707969
123.23333956783289
123.23438743234125
123.23760751366383
123.24725333055028
123.27531615800342
123.35422923976536
123.56757633006988
124.11842646266867
125.46579969262412
128.55838191923095
135.1484349751761
148.04367794610855
171.00555298195368
208.02600413438907
193.49560678653353
169.7395556800869
155.43202094821737
148.24556655806225
145.10395110001073
143.89747310119995
143.4845583256335
143.35660379197705
143.32015192837648
143.31047022299472
143.30804704075157
143.30746821045656
143.30733685508457
143.3073125916106
143.3073177031084
143.30735404853945
143.30747780092491
143.30788092491247
143.30914912158545
143.31305131492223
143.3247609518091
143.35887676318063
143.45491999770954
143.71466278661913
144.384690238196
146.0191005219931
149.75090755695592
157.63609919339132
172.87530584111354
199.52822859236986
241.87214509857918
213.14955444416245
192.77080124426652
182.07848214943633
177.05345517120085
174.99317617510778
174.2479958011302
174.00643941414634
173.93508757378683
173.9155788350711
173.91057670720548
173.90936494426015
173.9090817817592
173.90902088400313
173.909012738424
173.90902913769193
173.90909096812447
173.90929633420646
173.90995076577238
173.91198914155194
173.918204036637
173.9366414591792
173.98961980704482
174.136341610715
174.52544544585362
175.5058481549041
177.83091597242188
182.96522615173654
193.40022317879394
212.69224109219266
244.7646450157729
290.2406998853607
