# vtk DataFile Version 2.0
Unstructured Grid Example
ASCII
DATASET UNSTRUCTURED_GRID

POINTS 961 float
0.150000006 -0.00839745998 0
0.146666661 -0.00839745998 0
0.143333331 -0.00839745998 0
0.140000001 -0.00839745998 0
0.13666667 -0.00839745998 0
0.13333334 -0.00839745998 0
0.129999995 -0.00839745998 0
0.126666665 -0.00839745998 0
0.123333335 -0.00839745998 0
0.119999997 -0.00839745998 0
0.116666667 -0.00839745998 0
0.113333337 -0.00839745998 0
0.109999999 -0.00839745998 0
0.106666669 -0.00839745998 0
0.103333332 -0.00839745998 0
0.100000001 -0.00839745998 0
0.0966666639 -0.00839745998 0
0.0933333337 -0.00839745998 0
0.0900000036 -0.00839745998 0
0.086666666 -0.00839745998 0
0.0833333358 -0.00839745998 0
0.0799999982 -0.00839745998 0
0.0766666681 -0.00839745998 0
0.0733333305 -0.00839745998 0
0.0700000003 -0.00839745998 0
0.0666666701 -0.00839745998 0
0.0633333325 -0.00839745998 0
0.0599999987 -0.00839745998 0
0.0566666685 -0.00839745998 0
0.0533333346 -0.00839745998 0
0.0500000007 -0.00839745998 0
0.148333326 -0.0112842107 0
0.144999996 -0.0112842107 0
0.141666666 -0.0112842107 0
0.138333336 -0.0112842107 0
0.135000005 -0.0112842107 0
0.13166666 -0.0112842107 0
0.12833333 -0.0112842107 0
0.125 -0.0112842107 0
0.12166667 -0.0112842107 0
0.118333332 -0.0112842107 0
0.115000002 -0.0112842107 0
0.111666664 -0.0112842107 0
0.108333334 -0.0112842107 0
0.104999997 -0.0112842107 0
0.101666667 -0.0112842107 0
0.0983333364 -0.0112842107 0
0.0949999988 -0.0112842107 0
0.0916666687 -0.0112842107 0
0.088333331 -0.0112842107 0
0.0850000009 -0.0112842107 0
0.0816666633 -0.0112842107 0
0.0783333331 -0.0112842107 0
0.075000003 -0.0112842107 0
0.0716666654 -0.0112842107 0
0.0683333352 -0.0112842107 0
0.0649999976 -0.0112842107 0
0.0616666675 -0.0112842107 0
0.0583333336 -0.0112842107 0
0.0549999997 -0.0112842107 0
0.0516666658 -0.0112842107 0
0.0483333319 -0.0112842107 0
0.146666661 -0.0141709624 0
0.143333331 -0.0141709624 0
0.140000001 -0.0141709624 0
0.13666667 -0.0141709624 0
0.13333334 -0.0141709624 0
0.129999995 -0.0141709624 0
0.126666665 -0.0141709624 0
0.123333335 -0.0141709624 0
0.119999997 -0.0141709624 0
0.116666667 -0.0141709624 0
0.113333337 -0.0141709624 0
0.109999999 -0.0141709624 0
0.106666669 -0.0141709624 0
0.103333332 -0.0141709624 0
0.100000001 -0.0141709624 0
0.0966666639 -0.0141709624 0
0.0933333337 -0.0141709624 0
0.0900000036 -0.0141709624 0
0.086666666 -0.0141709624 0
0.0833333358 -0.0141709624 0
0.0799999982 -0.0141709624 0
0.0766666681 -0.0141709624 0
0.0733333305 -0.0141709624 0
0.0700000003 -0.0141709624 0
0.0666666701 -0.0141709624 0
0.0633333325 -0.0141709624 0
0.0599999987 -0.0141709624 0
0.0566666685 -0.0141709624 0
0.0533333346 -0.0141709624 0
0.0500000007 -0.0141709624 0
0.0466666669 -0.0141709624 0
0.144999996 -0.0170577131 0
0.141666666 -0.0170577131 0
0.138333336 -0.0170577131 0
0.135000005 -0.0170577131 0
0.13166666 -0.0170577131 0
0.12833333 -0.0170577131 0
0.125 -0.0170577131 0
0.12166667 -0.0170577131 0
0.118333332 -0.0170577131 0
0.115000002 -0.0170577131 0
0.111666664 -0.0170577131 0
0.108333334 -0.0170577131 0
0.104999997 -0.0170577131 0
0.101666667 -0.0170577131 0
0.0983333364 -0.0170577131 0
0.0949999988 -0.0170577131 0
0.0916666687 -0.0170577131 0
0.088333331 -0.0170577131 0
0.0850000009 -0.0170577131 0
0.0816666633 -0.0170577131 0
0.0783333331 -0.0170577131 0
0.075000003 -0.0170577131 0
0.0716666654 -0.0170577131 0
0.0683333352 -0.0170577131 0
0.0649999976 -0.0170577131 0
0.0616666675 -0.0170577131 0
0.0583333336 -0.0170577131 0
0.0549999997 -0.0170577131 0
0.0516666658 -0.0170577131 0
0.0483333319 -0.0170577131 0
0.0450000018 -0.0170577131 0
0.143333331 -0.0199444648 0
0.140000001 -0.0199444648 0
0.13666667 -0.0199444648 0
0.13333334 -0.0199444648 0
0.129999995 -0.0199444648 0
0.126666665 -0.0199444648 0
0.123333335 -0.0199444648 0
0.119999997 -0.0199444648 0
0.116666667 -0.0199444648 0
0.113333337 -0.0199444648 0
0.109999999 -0.0199444648 0
0.106666669 -0.0199444648 0
0.103333332 -0.0199444648 0
0.100000001 -0.0199444648 0
0.0966666639 -0.0199444648 0
0.0933333337 -0.0199444648 0
0.0900000036 -0.0199444648 0
0.086666666 -0.0199444648 0
0.0833333358 -0.0199444648 0
0.0799999982 -0.0199444648 0
0.0766666681 -0.0199444648 0
0.0733333305 -0.0199444648 0
0.0700000003 -0.0199444648 0
0.0666666701 -0.0199444648 0
0.0633333325 -0.0199444648 0
0.0599999987 -0.0199444648 0
0.0566666685 -0.0199444648 0
0.0533333346 -0.0199444648 0
0.0500000007 -0.0199444648 0
0.0466666669 -0.0199444648 0
0.043333333 -0.0199444648 0
0.141666666 -0.0228312165 0
0.138333336 -0.0228312165 0
0.135000005 -0.0228312165 0
0.13166666 -0.0228312165 0
0.12833333 -0.0228312165 0
0.125 -0.0228312165 0
0.12166667 -0.0228312165 0
0.118333332 -0.0228312165 0
0.115000002 -0.0228312165 0
0.111666664 -0.0228312165 0
0.108333334 -0.0228312165 0
0.104999997 -0.0228312165 0
0.101666667 -0.0228312165 0
0.0983333364 -0.0228312165 0
0.0949999988 -0.0228312165 0
0.0916666687 -0.0228312165 0
0.088333331 -0.0228312165 0
0.0850000009 -0.0228312165 0
0.0816666633 -0.0228312165 0
0.0783333331 -0.0228312165 0
0.075000003 -0.0228312165 0
0.0716666654 -0.0228312165 0
0.0683333352 -0.0228312165 0
0.0649999976 -0.0228312165 0
0.0616666675 -0.0228312165 0
0.0583333336 -0.0228312165 0
0.0549999997 -0.0228312165 0
0.0516666658 -0.0228312165 0
0.0483333319 -0.0228312165 0
0.0450000018 -0.0228312165 0
0.0416666679 -0.0228312165 0
0.140000001 -0.0257179681 0
0.13666667 -0.0257179681 0
0.13333334 -0.0257179681 0
0.129999995 -0.0257179681 0
0.126666665 -0.0257179681 0
0.123333335 -0.0257179681 0
0.119999997 -0.0257179681 0
0.116666667 -0.0257179681 0
0.113333337 -0.0257179681 0
0.109999999 -0.0257179681 0
0.106666669 -0.0257179681 0
0.103333332 -0.0257179681 0
0.100000001 -0.0257179681 0
0.0966666639 -0.0257179681 0
0.0933333337 -0.0257179681 0
0.0900000036 -0.0257179681 0
0.086666666 -0.0257179681 0
0.0833333358 -0.0257179681 0
0.0799999982 -0.0257179681 0
0.0766666681 -0.0257179681 0
0.0733333305 -0.0257179681 0
0.0700000003 -0.0257179681 0
0.0666666701 -0.0257179681 0
0.0633333325 -0.0257179681 0
0.0599999987 -0.0257179681 0
0.0566666685 -0.0257179681 0
0.0533333346 -0.0257179681 0
0.0500000007 -0.0257179681 0
0.0466666669 -0.0257179681 0
0.043333333 -0.0257179681 0
0.0399999991 -0.0257179681 0
0.138333336 -0.0286047198 0
0.135000005 -0.0286047198 0
0.13166666 -0.0286047198 0
0.12833333 -0.0286047198 0
0.125 -0.0286047198 0
0.12166667 -0.0286047198 0
0.118333332 -0.0286047198 0
0.115000002 -0.0286047198 0
0.111666664 -0.0286047198 0
0.108333334 -0.0286047198 0
0.104999997 -0.0286047198 0
0.101666667 -0.0286047198 0
0.0983333364 -0.0286047198 0
0.0949999988 -0.0286047198 0
0.0916666687 -0.0286047198 0
0.088333331 -0.0286047198 0
0.0850000009 -0.0286047198 0
0.0816666633 -0.0286047198 0
0.0783333331 -0.0286047198 0
0.075000003 -0.0286047198 0
0.0716666654 -0.0286047198 0
0.0683333352 -0.0286047198 0
0.0649999976 -0.0286047198 0
0.0616666675 -0.0286047198 0
0.0583333336 -0.0286047198 0
0.0549999997 -0.0286047198 0
0.0516666658 -0.0286047198 0
0.0483333319 -0.0286047198 0
0.0450000018 -0.0286047198 0
0.0416666679 -0.0286047198 0
0.038333334 -0.0286047198 0
0.13666667 -0.0314914696 0
0.13333334 -0.0314914696 0
0.129999995 -0.0314914696 0
0.126666665 -0.0314914696 0
0.123333335 -0.0314914696 0
0.119999997 -0.0314914696 0
0.116666667 -0.0314914696 0
0.113333337 -0.0314914696 0
0.109999999 -0.0314914696 0
0.106666669 -0.0314914696 0
0.103333332 -0.0314914696 0
0.100000001 -0.0314914696 0
0.0966666639 -0.0314914696 0
0.0933333337 -0.0314914696 0
0.0900000036 -0.0314914696 0
0.086666666 -0.0314914696 0
0.0833333358 -0.0314914696 0
0.0799999982 -0.0314914696 0
0.0766666681 -0.0314914696 0
0.0733333305 -0.0314914696 0
0.0700000003 -0.0314914696 0
0.0666666701 -0.0314914696 0
0.0633333325 -0.0314914696 0
0.0599999987 -0.0314914696 0
0.0566666685 -0.0314914696 0
0.0533333346 -0.0314914696 0
0.0500000007 -0.0314914696 0
0.0466666669 -0.0314914696 0
0.043333333 -0.0314914696 0
0.0399999991 -0.0314914696 0
0.0366666652 -0.0314914696 0
0.135000005 -0.0343782231 0
0.13166666 -0.0343782231 0
0.12833333 -0.0343782231 0
0.125 -0.0343782231 0
0.12166667 -0.0343782231 0
0.118333332 -0.0343782231 0
0.115000002 -0.0343782231 0
0.111666664 -0.0343782231 0
0.108333334 -0.0343782231 0
0.104999997 -0.0343782231 0
0.101666667 -0.0343782231 0
0.0983333364 -0.0343782231 0
0.0949999988 -0.0343782231 0
0.0916666687 -0.0343782231 0
0.088333331 -0.0343782231 0
0.0850000009 -0.0343782231 0
0.0816666633 -0.0343782231 0
0.0783333331 -0.0343782231 0
0.075000003 -0.0343782231 0
0.0716666654 -0.0343782231 0
0.0683333352 -0.0343782231 0
0.0649999976 -0.0343782231 0
0.0616666675 -0.0343782231 0
0.0583333336 -0.0343782231 0
0.0549999997 -0.0343782231 0
0.0516666658 -0.0343782231 0
0.0483333319 -0.0343782231 0
0.0450000018 -0.0343782231 0
0.0416666679 -0.0343782231 0
0.038333334 -0.0343782231 0
0.0350000001 -0.0343782231 0
0.13333334 -0.0372649729 0
0.129999995 -0.0372649729 0
0.126666665 -0.0372649729 0
0.123333335 -0.0372649729 0
0.119999997 -0.0372649729 0
0.116666667 -0.0372649729 0
0.113333337 -0.0372649729 0
0.109999999 -0.0372649729 0
0.106666669 -0.0372649729 0
0.103333332 -0.0372649729 0
0.100000001 -0.0372649729 0
0.0966666639 -0.0372649729 0
0.0933333337 -0.0372649729 0
0.0900000036 -0.0372649729 0
0.086666666 -0.0372649729 0
0.0833333358 -0.0372649729 0
0.0799999982 -0.0372649729 0
0.0766666681 -0.0372649729 0
0.0733333305 -0.0372649729 0
0.0700000003 -0.0372649729 0
0.0666666701 -0.0372649729 0
0.0633333325 -0.0372649729 0
0.0599999987 -0.0372649729 0
0.0566666685 -0.0372649729 0
0.0533333346 -0.0372649729 0
0.0500000007 -0.0372649729 0
0.0466666669 -0.0372649729 0
0.043333333 -0.0372649729 0
0.0399999991 -0.0372649729 0
0.0366666652 -0.0372649729 0
0.0333333351 -0.0372649729 0
0.13166666 -0.0401517227 0
0.12833333 -0.0401517227 0
0.125 -0.0401517227 0
0.12166667 -0.0401517227 0
0.118333332 -0.0401517227 0
0.115000002 -0.0401517227 0
0.111666664 -0.0401517227 0
[...]
POINT_DATA 961
SCALARS Temp float 1
LOOKUP_TABLE default
296.1205955859754
246.712851369427
212.52488456985742
192.1056538640531
181.1769866039396
175.86580156322327
173.4899607457002
172.49902184513905
172.1092512067146
171.96330130741424
171.91087459719287
171.89270098129833
171.8865896989036
171.8845884158318
171.88394932943666
171.88374706873768
171.8836858946624
171.88366781245463
171.88367191145673
171.88370946196827
171.88388955711974
171.88469398417888
171.88811762142225
171.9019861575814
171.95474310527686
172.14085534482268
172.74002787204137
174.46917807105842
178.86314173665895
188.5563224645569
207.40711412415038
246.71289713116732
201.7792157221674
173.30801713672943
157.05788184949563
148.68639164657208
144.7453547406557
143.02775305187419
142.32630051066891
142.05506424800583
141.95490737330869
141.919345422241
141.90713589584587
141.90306457257583
141.90174115941326
141.90131906815492
141.90118933322634
141.90115036773759
141.90114251276893
141.9011576916407
141.9012457768657
141.90164682425015
141.90338012250803
141.91053044974424
141.93834550406288
142.03932992973117
142.37669141349866
143.39713795820887
146.14468987966407
152.6261977692113
165.8743420909643
188.55633998874842
212.52485652547776
173.30800898782917
148.85307889378956
135.0912929652039
128.0555295865448
124.75366986883776
123.31473983658212
122.72602914081756
122.4977481852142
122.41318333304982
122.38306167769997
122.37268810047148
122.36921896695428
122.36808851696632
122.36772843680048
122.36761578291751
122.36758229817478
122.36758162717014
122.36761944965951
122.36780384626282
122.36861223136566
122.37198439753648
122.38531364973365
122.43474978215326
122.60470013017205
123.13874445582674
124.64997248881349
128.4445607265123
136.78757153007163
152.62618818436073
178.86314690180927
192.10562494327684
157.0578740425292
135.09129970519888
122.64500697081178
116.23298249748397
113.20036495719538
111.8690243446139
111.32073150619476
111.10690368887042
111.02730669816094
110.99883572212727
110.98899687231035
110.98569697920311
110.98461823800709
110.98427474439107
110.9841678732464
110.9841387692268
110.98414612611852
110.9842232607416
110.98457388342307
110.98605042686218
110.99195545763014
111.0141971623218
111.09234867460299
111.34551450596227
112.09222908437063
114.07291410130433
118.74424021760883
128.44457026213732
146.1447009633937
174.46917057575362
181.17697038423367
148.68638959831267
128.05553209090817
116.23300695870162
110.08615982822121
107.15786636767952
105.86506619016596
105.3303157706311
105.12106255241557
105.04296218285573
105.01496847019558
105.00527845540032
105.0020242021102
105.00095991910722
105.0006198051545
105.0005145347496
105.0004893558037
105.00051221389295
105.00065334470668
105.0012608829968
105.00371009279385
105.0130404238502
105.04637859829013
105.15702564832723
105.49470352275178
106.43309302131382
108.78658220915825
114.0729103469144
124.64997006779353
143.3971350694393
172.74003455821142
175.8657876670949
144.74537062753205
124.75368908320515
113.2003481629653
107.15786076588309
104.26739419662488
102.98761553752912
102.45717043683113
102.24929743933862
102.17162776714967
102.1437663221896
102.1341161849987
102.13087358664494
102.12981288932832
102.12947428992027
102.12937096159985
102.12935097196839
102.12939725285474
102.12963198347717
102.13059230142541
102.13428413180607
102.14764644008885
102.1928649479525
102.33479501085186
102.74491308548568
103.82873700086502
106.43309236718015
112.09222987509958
123.13875015985106
142.37667472237078
172.14084668182838
173.48995962918517
143.02776349275047
123.31476521272543
111.8690035027131
105.8650602623445
102.98761464333494
101.71204211042291
101.18291461429482
100.97544294626209
100.89789347296792
100.87006754120522
100.86042776058218
100.8571883689802
100.85612838438144
100.85579041758015
100.85568911031378
100.85567742467555
100.85575630166358
100.85611332426042
100.85750289517337
100.86258555133601
100.8800594317024
100.93619822238304
101.10381681957593
101.56678949204505
102.74491226294158
105.49470106095458
111.34551006653774
122.60469688234534
142.0393271553482
171.95475250271693
172.49902951554424
142.32631501669843
122.72599035314647
111.32071451274817
105.33031319566787
102.45717240875437
101.18291428156725
100.65417771184626
100.44681933316069
100.36930282069562
100.34148615458926
100.33184900231313
100.3286103729114
100.32755080519077
100.3272136485716
100.32711501483931
100.32711424456078
100.32723380860767
100.32773284694694
100.32958176427421
100.33602347801009
100.35712732575544
100.42190633429897
100.60764445472796
101.10381654875827
102.33479473261366
105.15702580331045
111.09234896054531
122.43474024351325
141.93832844008094
171.9019764524194
172.1092491505154
142.05508686460303
122.49770956433032
111.10689150269549
105.12106250443128
102.24929563397686
100.9754429114577
100.44681995826863
100.2394931040362
100.16198539735953
100.13417111205247
100.12453466837147
100.12129622088338
100.12023691796036
100.11990066745004
100.11980558607391
100.11981788503077
100.11998280526832
100.12062799667778
100.12290882836754
100.13050822909294
100.15439204263751
100.22508933089897
100.42190653302453
100.93619809491271
102.19286447486216
105.04637811299874
111.01419447872496
122.3853161875601
141.91053540555444
171.88813505511638
171.96332213310794
141.9548462419572
122.41316635376845
111.02730521356133
105.04296799918427
102.17162778721999
100.89789444587265
100.36930285155307
100.1619853648274
100.0844798184144
100.0566662256122
100.04702995149928
100.0437916241141
100.04273263401751
100.0423974778785
100.04230646965999
100.04233280364994
100.04254271530492
100.04332065700709
100.04595793844197
100.05441883427298
100.08015873119767
100.15439195584972
100.35712724023662
100.88005944772252
102.14764640584212
105.01304061658517
110.99194668866156
122.37197371711454
141.90336550845393
171.88468432365968
171.91092753686587
141.91930158701524
122.38305599238568
110.9988398700512
105.01496651586154
102.14376716722975
100.87006895018042
100.34148616380253
100.13417121016536
100.0566662216652
100.0288528100592
100.01921658959893
100.01597837947958
100.01491973672765
100.01458582575059
100.0144990486156
100.01453885832596
100.01478840985445
100.01567281366228
100.01856861817068
100.0275918385421
100.05441887087747
100.13050825883336
100.33602337197144
100.86258530567487
102.13428372574991
105.00370855840285
110.98604969649045
122.36861557243918
141.9016547553219
171.88387714423362
171.89265143733627
141.90711393767674
122.37269105183243
110.98900631875006
105.0052765576485
102.13411730941846
100.86042729415361
100.33184907705687
100.12453449697381
100.04702995405852
100.01921660762444
100.009580441172
100.00634236757965
100.00528411627934
100.00495147493709
100.00486865463466
100.00492001485847
100.00520054814778
100.006160419744
100.0092216315918
100.01856864067067
100.04595796319101
100.12290878918157
100.32958194556124
100.85750333703977
102.1305938186238
105.00125923840501
110.98457094419429
122.36780454109041
141.9012464371769
171.88372279893048
171.88657344129854
141.90306821920123
122.36923505856092
110.98569301579292
105.00202538929518
102.13087669329052
100.8571881498761
100.32861074780115
100.12129611593892
100.0437916542729
100.01597836821715
100.00634236244439
100.00310449767137
100.00204670196123
100.00171527097946
100.00163580006516
100.00169601219552
100.001998075904
100.00300538446625
100.00616040983435
100.01567280890049
100.04332069189886
100.12062786509506
100.32773278195857
100.85611313993559
102.12963137337697
105.00065272389458
110.98422235981374
122.36762379944822
141.90113694069296
171.8836740832349
171.88457489761106
141.90174482021456
122.36810712626965
110.98461278855294
105.00096088939365
102.1298113179525
100.85612834772871
100.32755054020214
100.12023685926779
100.04273268596354
100.01491971940132
100.00528411411763
100.0020467011652
100.00098953905348
100.00065927408166
100.00058243590888
100.00064876225936
100.00096419009922
100.00199807471914
100.00520055062658
100.01478840577425
100.04254273530552
100.11998279340985
100.32723400857704
100.85575686525726
102.12939652575423
105.0005107273961
110.98414354513734
122.36758144668802
141.90114581942177
171.88366783877242
171.88395092866412
141.90133660234048
122.36771925340746
110.98427416291814
105.00062499586312
102.12947361148605
100.85579132876303
100.32721352883665
100.11990065498598
100.04239746790988
100.01458582310866
100.00495147830765
100.00171527015155
100.00065927452724
100.00033035021929
100.00025559582284
100.00032584001217
100.00064876176813
100.00169601041598
100.00492001085414
100.01453885991437
100.04233278932882
100.11981776975408
100.32711417762697
100.85567714009164
102.1293507230379
105.00048899993682
110.98413844621246
122.36757213152936
141.90114729350347
171.88367944202298
171.88374549103872
141.90120688704152
122.36760472379602
110.98416819027535
105.0005108386301
102.12937065560448
100.85568838018054
100.32711501509269
100.11980564641195
100.04230645070307
100.01449904949291
100.00486864658276
100.00163580001413
100.00058243513048
100.00025559581078
100.00018281629444
100.00025559596105
100.000582435347
100.00163580214662
100.00486865018676
100.0144990431475
100.04230649496634
100.11980558139594
100.32711524551587
100.85568878891091
102.12937026511814
105.00051386166363
110.9841654317308
122.36761994663327
141.90118176779788
171.8837507665242
171.88370115132423
141.90112710634625
122.36758559771033
110.98414813156387
105.00048780590468
102.12935285552483
100.85567713631254
100.32711440343273
100.11981776799915
100.04233282540034
100.01453887813204
100.00492000981964
100.00169601437796
100.00064876187693
100.00032584014855
100.0002555960875
100.00033035048408
100.00065927355863
100.00171527081069
100.00495147217192
100.0145858099148
100.04239746532352
100.11990056132284
100.3272135185548
100.85579040100491
102.1294742425691
105.00062015233686
110.98426622158195
122.36772654206544
141.90130611955968
171.88394146076695
171.88369702988172
141.90112564672748
122.36758850427837
110.98413796551586
105.00051161008625
102.12939544718056
100.8557562352975
100.32723415200215
100.11998266797394
100.04254275230532
100.01478839537744
100.00520054445609
100.00199807409152
100.00096418965397
100.00064876253602
100.00058243607155
100.00065927416975
100.00098953974435
100.00204670228466
100.00528411150903
100.01491973382588
100.0427326583233
100.12023694121804
100.3275506896847
100.85612815332289
102.12981250289262
105.00095860947148
110.98461821174729
122.3680826048391
141.90173346939932
171.88458890373207
171.88364264501246
141.90114995602835
122.36763263083677
110.98421458745327
105.00065432275613
102.1296300071043
100.8561131448825
100.32773256205483
100.12062788762455
100.04332071609028
100.01567279636161
100.0061604180727
100.00300538345928
100.00199807539428
100.00169601209296
100.00163579997614
100.00171527076618
100.002046702656
100.00310449645774
100.0063423609759
100.01597837606121
100.04379164589379
100.1212961832216
100.32861054549437
100.85718881337218
102.13087512432445
105.00202243806459
110.98569803811891
122.36921847044782
141.90306364094513
171.88659783675567
171.8837045173773
141.90125726735286
122.36779238242151
110.98457167995561
105.00125642264412
102.13059226159689
100.85750368113773
100.32958163282444
100.12290884153107
100.04595793707148
100.01856862419537
100.0092216298247
100.00616041820608
100.00520054902972
100.00492001597468
100.00486865476655
100.00495147507674
100.00528411664531
100.00634236632594
100.00958044582421
100.01921659681808
100.0470299810439
100.1245345373648
100.33184893695677
100.86042756200997
102.13411557659359
105.00527788966706
110.98899010993561
122.37268179744102
141.90712606373555
171.89270010490685
171.88388503789687
141.9016623873087
122.36859874830088
110.98605179418966
105.00370544261105
102.13428377557457
100.8625847875127
100.33602345045051
100.13050833075042
100.0544188384232
100.02759186299373
100.01856861778506
100.0156728125071
100.0147884090217
100.01453885721419
100.01449904887487
100.01458582776884
100.01491973549317
100.01597837967122
100.01921659228222
100.02885280525501
100.05666624064582
100.13417110593878
100.341486351883
100.8700680491722
102.14376542768436
105.01496865852747
110.99883214369449
122.38306084676759
141.9193446198287
171.91087119772604
171.88468625293592
141.90333926663982
122.371973959347
110.99194099062626
105.01303745326447
102.14764729868526
100.88005873678745
100.35712739154613
100.15439189522763
100.08015868982058
100.05441882866167
100.04595793209052
100.0433206597184
100.04254272455647
100.04233280484564
100.04230646922511
100.0423974780796
100.04273263173982
100.04379162587661
100.04702994793531
100.05666623642307
100.08447982367679
100.16198528930293
100.3693029066382
100.89789365271129
102.17162869718076
105.04296131207141
111.0273057088694
122.41318937849461
141.95491653322014
171.96331811443972
171.88815947056003
141.91052453368704
122.38533050145742
111.01419430197541
105.04638125905043
102.19286466310753
100.93619895927986
100.42190707090974
100.22508947639487
100.15439229558024
100.13050841541987
100.12290899456221
100.12062815753634
100.11998296231312
100.11981805268537
100.11980576485759
100.11990082667599
100.12023708936933
100.12129638943544
100.1245348263475
100.13417127800577
100.16198549287668
100.23949325997368
100.44681957120693
100.97544205516172
102.24929646398199
105.1210590612806
111.10689623463074
122.4977406828716
142.05504006515204
172.10923494025332
171.90196965626558
141.93834949036622
122.43474118780692
111.09234879800273
105.15703073573262
102.33479469963955
101.10381778843936
100.60764492422858
100.42190673134526
100.35712776103432
100.33602389142385
100.32958221559699
100.32773335018169
100.32723425888658
100.32711468279999
100.32711545455975
100.32721407926529
100.32755124934917
100.32861081662031
100.33184946613119
100.34148657924925
100.36930321583304
100.44681974994606
100.65417772059061
101.1829150262734
102.4571697161216
105.33031404896995
111.32072724034022
122.72602711422523
142.32629525417397
172.4990185312566
171.9547364603087
142.03934459072502
122.60469278755313
111.34551422586472
105.49470042980327
102.74491385747751
101.5667907051962
101.10381722645462
100.9361989542281
100.88006010054461
100.8625861105312
100.85750341847933
100.85611381529242
100.85575686034305
100.85567804643696
100.85568962369184
100.85579100732771
100.85612895398063
100.85718890585133
100.86042834019808
100.87006808837907
100.89789405335947
100.97544333248148
101.18291509070474
101.7120436416396
102.98761500945521
105.86506584368576
111.86902447560979
123.31473692027194
143.0277488891682
173.4899617928233
172.14085338608433
142.3766607078574
123.1387408071245
112.09223421271028
106.43308958136568
103.82873795076253
102.74491297144026
102.33479487751829
102.19286490912646
102.14764632070687
102.13428420778597
102.13059265227385
102.12963207387264
102.12939727668137
102.1293509886548
102.1293709657642
102.12947434575104
102.12981295613446
102.13087374971022
102.13411618442683
102.14376640494287
102.17162790970227
102.24929739293964
102.45717092066329
102.98761496937354
104.26739597325471
107.1578694626961
113.20037000899967
124.75367640569762
144.74535698536846
175.8657903365591
172.74003458924824
143.39711263307848
124.64996720939278
114.07290220177347
108.78658021105682
106.43309120410872
105.49470026666528
105.15702326180354
105.04637640474306
105.0130377999908
105.00370730075413
105.00125788263158
105.00065066686159
105.0005097942268
105.00048650891496
105.00051202240641
105.00061718678445
105.00095717271815
105.0020215966889
105.00527582689591
105.01496582258069
105.04295931845213
105.1210602603631
105.33031380637321
105.86506368764213
107.15786693670715
110.08616805261228
116.23298663777005
128.05551626905432
148.68638046598983
181.1769801283962
174.4691781060971
146.14470853882727
128.44459449139566
118.74424926091234
114.07292764607479
112.09224004025661
111.3455249963983
111.09235908233275
111.01420718426274
110.9919662246458
110.98606209323403
110.9845846852506
110.98423379594122
110.98415658490818
110.98414933411034
110.98417853320623
110.98428544572404
110.98462925980489
110.9857074236959
110.9890076308204
110.99884656065404
111.02731715299977
111.10691427666097
111.32074160070593
111.86903537904918
113.20037843314131
116.23299870535962
122.64499697363091
135.0912784119839
157.0578496807755
192.1056288344634
178.86315424932567
152.62621605718124
136.78758421439713
128.44457927415144
124.6499897936218
123.13875836278952
122.60471545481013
122.43476592297131
122.3853288343747
122.37199909168677
122.36862604912533
122.36781861334607
122.36763490952926
122.36759610534409
122.3675976745779
122.3676308051584
122.36774313615362
122.36810344404529
122.36923397332808
122.37270295222446
122.3830760266816
122.41319906745615
122.49776341477256
122.72604326223458
123.31475541766918
124.7536863954205
128.05552673078157
135.09128593847794
148.8530632295816
173.30799163633998
212.5248655729717
188.55634078415852
165.87436447154968
152.62620151720938
146.144700965603
143.3971460410282
142.37669895340687
142.0393373119287
141.93835208806996
141.9105390611235
141.90339013298313
141.90165500847635
141.90125345784128
141.9011651333228
141.90115062077047
141.90115837876047
141.9011974592234
141.90132777977936
141.90174864297705
141.90307283098159
141.90714416909694
141.9193532268846
141.95491499767954
142.05507216630147
142.32630972343034
143.0277632016843
144.74536479960923
148.68638391713432
157.05786499252105
173.30799020977796
201.77918889129103
246.71281871597114
207.40712966919082
188.55631801143394
178.86314548953084
174.46918134771994
172.7400261908355
172.14085596078272
171.9547442304886
171.90198803136653
171.8881187172741
171.88469178227484
171.8838895323248
171.88371009385963
171.8836721961437
171.88366887583962
171.8836864058821
171.88374757650044
171.88394885358755
171.88458936206476
171.8865898663142
171.89270051442534
171.91087587197188
171.9633022095471
172.10925201106255
172.49902274506152
173.4899587657058
175.8657876724686
181.17697259144808
192.10562795704666
212.5248481726425
246.7128018203376
296.1202210840993
