# vtk DataFile Version 2.0
Unstructured Grid Example
ASCII
DATASET UNSTRUCTURED_GRID

POINTS 961 float
0.150000006 -0.00839745998 0
0.146666661 -0.00839745998 0
0.143333331 -0.00839745998 0
0.140000001 -0.00839745998 0
0.13666667 -0.00839745998 0
0.13333334 -0.00839745998 0
0.129999995 -0.00839745998 0
0.126666665 -0.00839745998 0
0.123333335 -0.00839745998 0
0.119999997 -0.00839745998 0
0.116666667 -0.00839745998 0
0.113333337 -0.00839745998 0
0.109999999 -0.00839745998 0
0.106666669 -0.00839745998 0
0.103333332 -0.00839745998 0
0.100000001 -0.00839745998 0
0.0966666639 -0.00839745998 0
0.0933333337 -0.00839745998 0
0.0900000036 -0.00839745998 0
0.086666666 -0.00839745998 0
0.0833333358 -0.00839745998 0
0.0799999982 -0.00839745998 0
0.0766666681 -0.00839745998 0
0.0733333305 -0.00839745998 0
0.0700000003 -0.00839745998 0
0.0666666701 -0.00839745998 0
0.0633333325 -0.00839745998 0
0.0599999987 -0.00839745998 0
0.0566666685 -0.00839745998 0
0.0533333346 -0.00839745998 0
0.0500000007 -0.00839745998 0
0.148333326 -0.0112842107 0
0.144999996 -0.0112842107 0
0.141666666 -0.0112842107 0
0.138333336 -0.0112842107 0
0.135000005 -0.0112842107 0
0.13166666 -0.0112842107 0
0.12833333 -0.0112842107 0
0.125 -0.0112842107 0
0.12166667 -0.0112842107 0
0.118333332 -0.0112842107 0
0.115000002 -0.0112842107 0
0.111666664 -0.0112842107 0
0.108333334 -0.0112842107 0
0.104999997 -0.0112842107 0
0.101666667 -0.0112842107 0
0.0983333364 -0.0112842107 0
0.0949999988 -0.0112842107 0
0.0916666687 -0.0112842107 0
0.088333331 -0.0112842107 0
0.0850000009 -0.0112842107 0
0.0816666633 -0.0112842107 0
0.0783333331 -0.0112842107 0
0.075000003 -0.0112842107 0
0.0716666654 -0.0112842107 0
0.0683333352 -0.0112842107 0
0.0649999976 -0.0112842107 0
0.0616666675 -0.0112842107 0
0.0583333336 -0.0112842107 0
0.0549999997 -0.0112842107 0
0.0516666658 -0.0112842107 0
0.0483333319 -0.0112842107 0
0.146666661 -0.0141709624 0
0.143333331 -0.0141709624 0
0.140000001 -0.0141709624 0
0.13666667 -0.0141709624 0
0.13333334 -0.0141709624 0
0.129999995 -0.0141709624 0
0.126666665 -0.0141709624 0
0.123333335 -0.0141709624 0
0.119999997 -0.0141709624 0
0.116666667 -0.0141709624 0
0.113333337 -0.0141709624 0
0.109999999 -0.0141709624 0
0.106666669 -0.0141709624 0
0.103333332 -0.0141709624 0
0.100000001 -0.0141709624 0
0.0966666639 -0.0141709624 0
0.0933333337 -0.0141709624 0
0.0900000036 -0.0141709624 0
0.086666666 -0.0141709624 0
0.0833333358 -0.0141709624 0
0.0799999982 -0.0141709624 0
0.0766666681 -0.0141709624 0
0.0733333305 -0.0141709624 0
0.0700000003 -0.0141709624 0
0.0666666701 -0.0141709624 0
0.0633333325 -0.0141709624 0
0.0599999987 -0.0141709624 0
0.0566666685 -0.0141709624 0
0.0533333346 -0.0141709624 0
0.0500000007 -0.0141709624 0
0.0466666669 -0.0141709624 0
0.144999996 -0.0170577131 0
0.141666666 -0.0170577131 0
0.138333336 -0.0170577131 0
0.135000005 -0.0170577131 0
0.13166666 -0.0170577131 0
0.12833333 -0.0170577131 0
0.125 -0.0170577131 0
0.12166667 -0.0170577131 0
0.118333332 -0.0170577131 0
0.115000002 -0.0170577131 0
0.111666664 -0.0170577131 0
0.108333334 -0.0170577131 0
0.104999997 -0.0170577131 0
0.101666667 -0.0170577131 0
0.0983333364 -0.0170577131 0
0.0949999988 -0.0170577131 0
0.0916666687 -0.0170577131 0
0.088333331 -0.0170577131 0
0.0850000009 -0.0170577131 0
0.0816666633 -0.0170577131 0
0.0783333331 -0.0170577131 0
0.075000003 -0.0170577131 0
0.0716666654 -0.0170577131 0
0.0683333352 -0.0170577131 0
0.0649999976 -0.0170577131 0
0.0616666675 -0.0170577131 0
0.0583333336 -0.0170577131 0
0.0549999997 -0.0170577131 0
0.0516666658 -0.0170577131 0
0.0483333319 -0.0170577131 0
0.0450000018 -0.0170577131 0
0.143333331 -0.0199444648 0
0.140000001 -0.0199444648 0
0.13666667 -0.0199444648 0
0.13333334 -0.0199444648 0
0.129999995 -0.0199444648 0
0.126666665 -0.0199444648 0
0.123333335 -0.0199444648 0
0.119999997 -0.0199444648 0
0.116666667 -0.0199444648 0
0.113333337 -0.0199444648 0
0.109999999 -0.0199444648 0
0.106666669 -0.0199444648 0
0.103333332 -0.0199444648 0
0.100000001 -0.0199444648 0
0.0966666639 -0.0199444648 0
0.0933333337 -0.0199444648 0
0.0900000036 -0.0199444648 0
0.086666666 -0.0199444648 0
0.0833333358 -0.0199444648 0
0.0799999982 -0.0199444648 0
0.0766666681 -0.0199444648 0
0.0733333305 -0.0199444648 0
0.0700000003 -0.0199444648 0
0.0666666701 -0.0199444648 0
0.0633333325 -0.0199444648 0
0.0599999987 -0.0199444648 0
0.0566666685 -0.0199444648 0
0.0533333346 -0.0199444648 0
0.0500000007 -0.0199444648 0
0.0466666669 -0.0199444648 0
0.043333333 -0.0199444648 0
0.141666666 -0.0228312165 0
0.138333336 -0.0228312165 0
0.135000005 -0.0228312165 0
0.13166666 -0.0228312165 0
0.12833333 -0.0228312165 0
0.125 -0.0228312165 0
0.12166667 -0.0228312165 0
0.118333332 -0.0228312165 0
0.115000002 -0.0228312165 0
0.111666664 -0.0228312165 0
0.108333334 -0.0228312165 0
0.104999997 -0.0228312165 0
0.101666667 -0.0228312165 0
0.0983333364 -0.0228312165 0
0.0949999988 -0.0228312165 0
0.0916666687 -0.0228312165 0
0.088333331 -0.0228312165 0
0.0850000009 -0.0228312165 0
0.0816666633 -0.0228312165 0
0.0783333331 -0.0228312165 0
0.075000003 -0.0228312165 0
0.0716666654 -0.0228312165 0
0.0683333352 -0.0228312165 0
0.0649999976 -0.0228312165 0
0.0616666675 -0.0228312165 0
0.0583333336 -0.0228312165 0
0.0549999997 -0.0228312165 0
0.0516666658 -0.0228312165 0
0.0483333319 -0.0228312165 0
0.0450000018 -0.0228312165 0
0.0416666679 -0.0228312165 0
0.140000001 -0.0257179681 0
0.13666667 -0.0257179681 0
0.13333334 -0.0257179681 0
0.129999995 -0.0257179681 0
0.126666665 -0.0257179681 0
0.123333335 -0.0257179681 0
0.119999997 -0.0257179681 0
0.116666667 -0.0257179681 0
0.113333337 -0.0257179681 0
0.109999999 -0.0257179681 0
0.106666669 -0.0257179681 0
0.103333332 -0.0257179681 0
0.100000001 -0.0257179681 0
0.0966666639 -0.0257179681 0
0.0933333337 -0.0257179681 0
0.0900000036 -0.0257179681 0
0.086666666 -0.0257179681 0
0.0833333358 -0.0257179681 0
0.0799999982 -0.0257179681 0
0.0766666681 -0.0257179681 0
0.0733333305 -0.0257179681 0
0.0700000003 -0.0257179681 0
0.0666666701 -0.0257179681 0
0.0633333325 -0.0257179681 0
0.0599999987 -0.0257179681 0
0.0566666685 -0.0257179681 0
0.0533333346 -0.0257179681 0
0.0500000007 -0.0257179681 0
0.0466666669 -0.0257179681 0
0.043333333 -0.0257179681 0
0.0399999991 -0.0257179681 0
0.138333336 -0.0286047198 0
0.135000005 -0.0286047198 0
0.13166666 -0.0286047198 0
0.12833333 -0.0286047198 0
0.125 -0.0286047198 0
0.12166667 -0.0286047198 0
0.118333332 -0.0286047198 0
0.115000002 -0.0286047198 0
0.111666664 -0.0286047198 0
0.108333334 -0.0286047198 0
0.104999997 -0.0286047198 0
0.101666667 -0.0286047198 0
0.0983333364 -0.0286047198 0
0.0949999988 -0.0286047198 0
0.0916666687 -0.0286047198 0
0.088333331 -0.0286047198 0
0.0850000009 -0.0286047198 0
0.0816666633 -0.0286047198 0
0.0783333331 -0.0286047198 0
0.075000003 -0.0286047198 0
0.0716666654 -0.0286047198 0
0.0683333352 -0.0286047198 0
0.0649999976 -0.0286047198 0
0.0616666675 -0.0286047198 0
0.0583333336 -0.0286047198 0
0.0549999997 -0.0286047198 0
0.0516666658 -0.0286047198 0
0.0483333319 -0.0286047198 0
0.0450000018 -0.0286047198 0
0.0416666679 -0.0286047198 0
0.038333334 -0.0286047198 0
0.13666667 -0.0314914696 0
0.13333334 -0.0314914696 0
0.129999995 -0.0314914696 0
0.126666665 -0.0314914696 0
0.123333335 -0.0314914696 0
0.119999997 -0.0314914696 0
0.116666667 -0.0314914696 0
0.113333337 -0.0314914696 0
0.109999999 -0.0314914696 0
0.106666669 -0.0314914696 0
0.103333332 -0.0314914696 0
0.100000001 -0.0314914696 0
0.0966666639 -0.0314914696 0
0.0933333337 -0.0314914696 0
0.0900000036 -0.0314914696 0
0.086666666 -0.0314914696 0
0.0833333358 -0.0314914696 0
0.0799999982 -0.0314914696 0
0.0766666681 -0.0314914696 0
0.0733333305 -0.0314914696 0
0.0700000003 -0.0314914696 0
0.0666666701 -0.0314914696 0
0.0633333325 -0.0314914696 0
0.0599999987 -0.0314914696 0
0.0566666685 -0.0314914696 0
0.0533333346 -0.0314914696 0
0.0500000007 -0.0314914696 0
0.0466666669 -0.0314914696 0
0.043333333 -0.0314914696 0
0.0399999991 -0.0314914696 0
0.0366666652 -0.0314914696 0
0.135000005 -0.0343782231 0
0.13166666 -0.0343782231 0
0.12833333 -0.0343782231 0
0.125 -0.0343782231 0
0.12166667 -0.0343782231 0
0.118333332 -0.0343782231 0
0.115000002 -0.0343782231 0
0.111666664 -0.0343782231 0
0.108333334 -0.0343782231 0
0.104999997 -0.0343782231 0
0.101666667 -0.0343782231 0
0.0983333364 -0.0343782231 0
0.0949999988 -0.0343782231 0
0.0916666687 -0.0343782231 0
0.088333331 -0.0343782231 0
0.0850000009 -0.0343782231 0
0.0816666633 -0.0343782231 0
0.0783333331 -0.0343782231 0
0.075000003 -0.0343782231 0
0.0716666654 -0.0343782231 0
0.0683333352 -0.0343782231 0
0.0649999976 -0.0343782231 0
0.0616666675 -0.0343782231 0
0.0583333336 -0.0343782231 0
0.0549999997 -0.0343782231 0
0.0516666658 -0.0343782231 0
0.0483333319 -0.0343782231 0
0.0450000018 -0.0343782231 0
0.0416666679 -0.0343782231 0
0.038333334 -0.0343782231 0
0.0350000001 -0.0343782231 0
0.13333334 -0.0372649729 0
0.129999995 -0.0372649729 0
0.126666665 -0.0372649729 0
0.123333335 -0.0372649729 0
0.119999997 -0.0372649729 0
0.116666667 -0.0372649729 0
0.113333337 -0.0372649729 0
0.109999999 -0.0372649729 0
0.106666669 -0.0372649729 0
0.103333332 -0.0372649729 0
0.100000001 -0.0372649729 0
0.0966666639 -0.0372649729 0
0.0933333337 -0.0372649729 0
0.0900000036 -0.0372649729 0
0.086666666 -0.0372649729 0
0.0833333358 -0.0372649729 0
0.0799999982 -0.0372649729 0
0.0766666681 -0.0372649729 0
0.0733333305 -0.0372649729 0
0.0700000003 -0.0372649729 0
0.0666666701 -0.0372649729 0
0.0633333325 -0.0372649729 0
0.0599999987 -0.0372649729 0
0.0566666685 -0.0372649729 0
0.0533333346 -0.0372649729 0
0.0500000007 -0.0372649729 0
0.0466666669 -0.0372649729 0
0.043333333 -0.0372649729 0
0.0399999991 -0.0372649729 0
0.0366666652 -0.0372649729 0
0.0333333351 -0.0372649729 0
0.13166666 -0.0401517227 0
0.12833333 -0.0401517227 0
0.125 -0.0401517227 0
0.12166667 -0.0401517227 0
0.118333332 -0.0401517227 0
0.115000002 -0.0401517227 0
0.111666664 -0.0401517227 0
[...]
POINT_DATA 961
SCALARS Temp float 1
LOOKUP_TABLE default
311.38475379809654
261.6443374951692
225.85155994107694
203.22004017492154
190.2485775951477
183.4484026279959
180.1559537789613
178.66906634535556
178.03684764707165
177.78163284123988
177.683119860323
177.64654405508247
177.63341532502196
177.62884080265894
177.62728933597253
177.62677331882196
177.6266076435403
177.62655915496
177.62656986230758
177.62667939228604
177.6271636235467
177.62913787876278
177.63677031028396
177.66464129075092
177.7597212764419
178.05933228618792
178.9202555860469
181.14672265459618
186.26844667607628
196.66691052194835
215.64782221382123
261.6443824902791
215.90818243142297
185.48003505393805
167.01611293914056
156.80398139059187
151.61306583701406
149.16510347594138
148.08381172532071
147.63249329739335
147.45311209955636
147.38477378385852
147.3596815580652
147.35076149291484
147.34767961859103
147.3466401620571
147.3462998990439
147.34619269707832
147.34617095152976
147.34621763254785
147.34646276853906
147.347486378327
147.35151839714106
147.36656794444852
147.41928771275553
147.59090887260191
148.1040072215611
149.49546660497512
152.8774109569107
160.1698724636267
174.0390560940735
196.66692861562342
225.85152906737886
185.480024878976
159.08541568938668
143.31929168645766
134.6851172257358
130.32091017544968
128.2678220720252
127.36112644891817
126.98220764436289
126.83128918527309
126.77365272122556
126.75243472925328
126.74487235179153
126.74225332329745
126.7413692288099
126.74107812728286
126.74098904120372
126.74098735826125
126.74109627156041
126.7415860454117
126.74355061310712
126.75100463931133
126.77766834738325
126.86678815199491
127.1422316801629
127.92071785527402
129.9103906469757
134.46164250868554
143.6982841809179
160.16986287171963
186.2684527311522
203.22000685832123
167.01610190730233
143.3192978512323
129.11285288746728
121.29075394523173
117.3118387630575
115.42760957554276
114.59018449222862
114.23816837937602
114.0972358315088
114.04316615819293
114.02318317750382
114.01603682186465
114.01355387187382
114.01271472205501
114.01243949386539
114.01236176156561
114.01238573438057
114.01259870773953
114.01348980928279
114.01692100465432
114.02940056659295
114.07200016362859
114.20731761918714
114.60345602028251
115.661865817713
118.21907433661707
123.76079009183438
134.46165310824674
152.87742246279018
181.14671489508018
190.2485566431653
156.80397644665595
134.6851179812522
121.29078332733772
113.84982448676892
110.03610273778618
108.21880424724094
107.4070202090923
107.06438702169952
106.92675957221415
106.8738181446053
106.85421013382725
106.84718570695101
106.84474239121027
106.8439150430966
106.84364557698349
106.84357945401293
106.84364567982887
106.8440200883488
106.84550282258745
106.85097015597897
106.86995284856962
106.93162497017605
107.11760472205451
107.63396314456323
108.94377076385774
111.95851841646264
118.21907007162724
129.91038787708447
149.49546377737482
178.92026222108152
183.44838465181596
151.6130836564876
130.3209325792347
117.3118196058016
110.03609616045254
106.28841367603044
104.4960308224109
103.69321270935204
103.35368527750903
103.2170993079063
103.16449900817855
103.14500019036323
103.13800988242765
103.13557749159726
103.1347545607163
103.13449043106611
103.13444001351134
103.13456795544685
103.13516844383741
103.13743018126544
103.14539851094523
103.17177287460774
103.2533210326426
103.48732141098637
104.10665813163021
105.61041007972878
108.94376987676394
115.6618666784075
127.92072392115136
148.1039897795937
178.05932373850018
180.15595375620686
149.16511520772525
128.26785016043254
115.42758626913376
108.21879725288927
104.49602968642056
102.71245913178042
101.91263897478686
101.5740971337385
101.43782731786989
101.38532644161155
101.36585835096275
101.35887771651387
101.35644818341954
101.35562744581394
101.35536941334951
101.35534169341054
101.35555211831206
101.35643680290742
101.35961262092619
101.37029480322603
101.40403228993416
101.50362039360361
101.77709726146703
102.47286287317884
104.1066570132845
107.63396005194842
114.60345072979176
127.14222843327258
147.59090610673272
177.75973062169209
178.66907513415796
148.08382812372278
127.36108501472155
114.59016546720284
107.4070174389242
103.69321541466154
101.91263848936444
101.11378409433094
100.77554437695741
100.63936810229679
100.58689530453654
100.5674356516935
100.56045762228983
100.55802940090037
100.55721105184526
100.55696085341289
100.55696203433394
100.55727182471685
100.55847597453318
100.56260332035261
100.5758831788003
100.61605338996134
100.72994714072509
101.0317451742388
101.77709686688524
103.48732098072925
107.11760496843951
114.2073180066193
126.86677771647973
147.41927022859272
177.66463161732577
178.03684737254298
147.63251793297133
126.98216725274706
114.23815486627119
107.06438706546811
103.35368277338858
101.57409701182297
100.77554534232866
100.43739623166788
100.30124684616102
100.24878182777374
100.2293245321649
100.22234725279635
100.21991991474609
100.21910429932836
100.21886390558045
100.21889857226351
100.21931588172876
100.22084060500063
100.22584652923378
100.24131987073969
100.28643147511477
100.41028804697778
100.72994744444084
101.5036202382803
103.25332044662233
106.93162434500101
114.071997194753
126.77767117291772
147.3665731955904
177.63678805759187
177.78165645599194
147.4530502643255
126.83127119428534
114.09723414153514
106.92676650944404
103.21709924249154
101.43782866913092
100.63936811011368
100.3012467833168
100.16510471929097
100.1126419878982
100.09318533566729
100.0862084665866
100.0837820891573
100.08296966113157
100.08274019931271
100.08280985809925
100.08333142612125
100.08514268499526
100.09086833581718
100.10797978569465
100.15644414120146
100.28643132970755
100.61605326881963
101.4040323044696
103.17177281963768
106.8699530706162
114.02939045678148
126.75099318698318
147.35150329474743
177.62912837269576
177.68317382392118
147.38472874157782
126.7736460660509
114.04317054457564
106.87381532656967
103.164500008932
101.38532841057157
100.58689532306705
100.24878199349223
100.1126419818626
100.06017988811816
100.04072346152095
100.03374696791624
100.03132164519762
100.03051271241682
100.0302943270816
100.03039689882299
100.03100900611682
100.03304864143234
100.03929836145475
100.05749584318065
100.10797985541681
100.2413199197688
100.5758830114466
101.37029444492524
103.14539797784491
106.85096836826287
114.01692012583871
126.7435542631456
147.34749441390136
177.627150903984
177.64649229731236
147.3596574983452
126.7524369563114
114.02319336461231
106.85420756973707
103.14500163723194
101.36585763954501
100.56743577592034
100.22932424539411
100.09318534073778
100.0407234976188
100.02126727188582
100.01429120764196
100.01186704353012
100.01106160142409
100.01085338846767
100.01098381635188
100.0116663303715
100.01386854606955
100.02045866033671
100.0392984053729
100.09086838073998
100.22584646582715
100.56260361322859
101.359613281964
103.13743220347655
106.84550076591796
114.01348640844179
126.7415867773987
147.34646359515958
177.62669288398536
177.6333968673143
147.35076366518817
126.74488906575141
114.01603174358848
106.84718712326985
103.13801400168936
101.35887744668464
100.56045821358141
100.22234708308184
100.08620852245217
100.03374694564408
100.01429119717926
100.00731577478653
100.0048929305791
100.0040907717833
100.00389108640765
100.00404278570608
100.00477446062588
100.00708037521117
100.01386852510832
100.03304863203095
100.0851427487106
100.22084038469025
100.55847586975541
101.35643652486068
103.13516765054399
106.84401931947104
114.01259768301367
126.74110102833849
147.34619644188965
177.62657238901778
177.62882577414027
147.34768262790908
126.74227303841347
114.01354759794924
106.84474374672375
103.13557539352685
101.35644816350278
100.55802898463513
100.21991981760415
100.08378218366401
100.03132161213372
100.01186703942024
100.00489292881939
100.00247187007881
100.0016728528593
100.00147987288521
100.00164636239897
100.00240900679842
100.00477445804856
100.01166633560469
100.03100899853155
100.0833314634397
100.21931586203486
100.55727213899851
101.35555293233935
103.13456697541785
106.84364384659615
114.0123827925926
126.74098742718776
147.34617440001819
177.62655906206024
177.62729072660443
147.3466582938514
126.74135941835466
114.01271436622453
106.8439215502003
103.13475373628398
101.35562875995296
100.5572108813841
100.21910428079745
100.08296964238347
100.03051270798261
100.01106160842014
100.00409076999802
100.0016728539243
100.00087740135916
100.00068977461817
100.0008659099138
100.00164636126514
100.0040427817552
100.01098380808193
100.03039690167456
100.08280983139103
100.21889837636321
100.55696192585863
101.35534129456559
103.13443968986272
106.84357904315308
114.01236144539531
126.74097788757591
147.34618949478818
177.62660082955762
177.6267723688092
147.3463185360667
126.74106678955214
114.01244017428516
106.84364092919996
103.13449007636045
101.3553683405619
100.55696085849343
100.21886400680039
100.08274016702845
100.03029432925162
100.01085337160632
100.00389108635576
100.00147987104909
100.00068977459503
100.00050723320417
100.00068977496524
100.00147987159912
100.00389109098866
100.01085337913885
100.03029431683353
100.0827402454754
100.21886389834367
100.55696121533475
101.35536894907413
103.1344895198334
106.84364469448815
114.01243673589683
126.74108241688889
147.34629193564118
177.62677674799897
177.62662433771766
147.34616937499462
126.74099289305725
114.01237256512997
106.84357759883487
103.1344425095097
101.35534129976199
100.55696229179375
100.21889837419005
100.08280989925665
100.03039693721605
100.01098380615824
100.00404279061303
100.00164636155861
100.00086591025264
100.00068977527225
100.00087740200266
100.00167285165368
100.00409077143789
100.01106159570816
100.03051268162876
100.08296963809744
100.21910411907893
100.55721085934137
101.35562741545901
103.13475448639969
106.8439154178493
114.01270477857226
126.74136717282174
147.34662649623385
177.62728138265192
177.62658890763248
147.3461537860024
126.74099482207458
114.01237605733408
106.84364495400338
103.13456550879744
101.35555204055352
100.557272364364
100.21931565536318
100.08333149406538
100.03100897797296
100.01166632296638
100.00477445651505
100.0024090057471
100.00164636307667
100.00147987325059
100.00167285307855
100.0024718716696
100.00489293130717
100.0118670340245
100.03132163971529
100.08378213433528
100.21991995336538
100.55802921815915
101.35644784136943
103.13557695233224
106.84474082104622
114.01355364698236
126.74224693770515
147.34767167138665
177.628841420221
177.62653959173247
147.3462092254699
126.74111011550679
114.01258872285517
106.84402127112085
103.13516585834444
101.35643655981954
100.55847552207999
100.22084042509336
100.08514279117807
100.03304860757066
100.01386854217476
100.00708037293339
100.00477445943625
100.00404278549335
100.00389108620868
100.0040907712408
100.00489293213283
100.0073157721367
100.01429119397004
100.03374696121305
100.08620850566156
100.22234719227171
100.56045789262338
101.35887836638582
103.13801190547282
106.84718348573591
114.01603810214556
126.74487187567988
147.35076073976285
177.63342388873195
177.62667376777236
147.34647438547483
126.741573401263
114.01348747513566
106.84549730755845
103.13743016774984
101.35961377359261
100.56260312969555
100.22584655105325
100.09086833176947
100.03929837369111
100.02045865626718
100.01386854269542
100.01166633246254
100.01098381849592
100.01085338873317
100.01106160180852
100.0118670443247
100.01429120499641
100.02126728133922
100.04072347657554
100.0931853876488
100.22932431168613
100.5674355428361
101.3658580497103
103.14499939960956
106.85420939530547
114.02317546615394
126.75242808702424
147.35967175111733
177.64654353123288
177.6271590637953
147.34750242725042
126.7435365065022
114.01692264590876
106.85096457274182
103.14539807998473
101.37029367271175
100.57588313491395
100.2413200364264
100.10797979617256
100.05749589053053
100.03929835979781
100.03304863886297
100.0310090046487
100.03039689657136
100.03029432755224
100.03051271615631
100.03132164277238
100.0337469680687
100.04072346701841
100.06017987801872
100.11264201449025
100.24878181948264
100.58689561776188
101.38532716722202
103.16449781620629
106.87381847465501
114.04316215271984
126.7736520181351
147.38477320456315
177.68311648532935
177.62913110487764
147.35147673203218
126.75099391668967
114.02938388203837
106.8699491743676
103.17177397028175
101.40403128063525
100.61605349691138
100.28643122334847
100.15644406713474
100.10797977434798
100.09086832352286
100.08514269112345
100.08333144158873
100.08280986020668
100.08274019873376
100.08296966120929
100.08378208550417
100.08620847027066
100.09318532797013
100.11264200748295
100.16510472997892
100.30124665793741
100.63936822842221
101.43782760264267
103.21710057279888
106.92675855089107
114.09723483202195
126.83129574922094
147.4531217287228
177.78164975216768
177.6368131939906
147.36656249979254
126.77768664277177
114.0719970233955
106.93162832752562
103.25332069857069
101.50362152842217
100.7299482954251
100.41028829199088
100.28643191258702
100.24132018118527
100.22584680906566
100.22084087741817
100.21931614603106
100.21889885471776
100.21886420505534
100.21910456849757
100.2199202030855
100.2223475361766
100.22932479647336
100.24878210438932
100.30124700068335
100.43739650033454
100.77554479195538
101.57409586246457
103.35368407843337
107.06438277102967
114.238159950337
126.982199681209
147.63246826988117
178.0368309744464
177.664624537936
147.41929196049603
126.86677862500055
114.20731794380325
107.11761111963543
103.48732105171004
101.77709869547255
101.0317458947325
100.72994775697897
100.61605407139875
100.57588382353383
100.56260402904087
100.5584767510545
100.55727252666325
100.55696271865523
100.55696153744856
100.5572117269531
100.55803009313009
100.56045831187541
100.56743637160818
100.5868959650482
100.63936870602527
100.77554503430258
101.11378413612202
101.91263960649478
103.69321189157665
107.40701831906527
114.59017956332474
127.36112433942735
148.0838060038647
178.6690629326085
177.75971435061757
147.590923826232
127.14222407695436
114.60345572207282
107.63395930372806
104.10665920928153
102.47286460340304
101.77709783463779
101.50362149488888
101.40403323158847
101.37029560729677
101.3596133797494
101.35643750998456
101.35555292271337
101.35534257965989
101.35537015933377
101.35562829319058
101.35644900156993
101.35887849151989
101.36585917914535
101.38532722167885
101.43782816289348
101.5740976752957
101.91263963419851
102.71246134091598
104.4960300576247
108.21880387197496
115.42760977065979
128.26781892837207
149.16509933217156
180.15595589777848
178.05933070771388
148.103975345433
127.92071397527508
115.66187158984984
108.94376649428847
105.61041132885836
104.10665790393601
103.4873211871421
103.25332097950805
103.17177271392346
103.14539861875028
103.13743060368672
103.13516856066185
103.13456798915438
103.13444002911247
103.13449044781845
103.13475462907323
103.13557757422608
103.13801008406298
103.14500019283741
103.16449910792106
103.2170995035388
103.35368522242534
103.69321343136448
104.49602994128324
106.28841584106098
110.03610653630732
117.31184476787232
130.3209178478773
151.61306907367745
183.4483876983344
178.9202620419852
149.49544065472077
129.91038469338102
118.21906045200132
111.95851597759466
108.94376854088064
107.63395902679312
107.11760187386218
106.93162215443213
106.86994958249139
106.85096670433653
106.84549911459132
106.84401676464014
106.84364263903032
106.84357594791126
106.84364244095866
106.84391178274278
106.84473899297251
106.84718245295292
106.85420686760271
106.87381486945525
106.92675604138256
107.0643841548352
107.40701795619309
108.21880116705502
110.03610349448957
113.8498343055898
121.29075920590648
134.6850997582772
156.80396587230615
190.24856534398745
181.14672312760243
152.87743114732774
134.46167949721408
123.76080045993716
118.2190901870784
115.66187837747844
114.60346810929343
114.2073297105409
114.07201181829004
114.02941304392532
114.01693437021355
114.01350231471125
114.01261092961276
114.01239785379175
114.01237402494047
114.01245183007889
114.01272710669218
114.01356658899593
114.01604894275785
114.02319561673707
114.04317868626701
114.09724796129929
114.23818069448856
114.59019594198638
115.427622182752
117.31185434573072
121.2907733829579
129.11284086991878
143.31927482755512
167.0160772396829
203.22001140534135
186.26846064924464
160.1698918909259
143.6982976022624
134.46166286373918
129.91040966561422
127.92073285605399
127.14224852789357
126.86680541719436
126.77768472236343
126.75102054229683
126.74356564338463
126.74160202596157
126.74111290873806
126.74100306231945
126.74100560617225
126.74109434638288
126.74138514441057
126.74226943716673
126.74488856180338
126.75245078537431
126.7736682846749
126.83130607948847
126.98222416041679
127.3611416167751
128.2678388336888
130.3209286536518
134.68511107751578
143.31928160979558
159.0853972357591
185.48000525081082
225.8515362429906
196.6669297854879
174.03907885053172
160.16987606627663
152.87742274335284
149.49547460924342
148.10401477668262
147.59091644792844
147.41929453608853
147.36657669922351
147.3515284080672
147.3474947348182
147.34647065244116
147.34622527153013
147.3461792304552
147.34620087373
147.34630818527233
147.3466489916976
147.34768731294415
147.35076989542006
147.35968998271966
147.38478178832852
147.4531199671159
147.63250118096582
148.08382091254052
149.16511392301223
151.61307719025496
156.8039700109231
167.01609113383526
185.48000281179395
215.90814987376632
261.6442976015962
215.64783805358553
196.66690589540133
186.26845094746383
181.14672626720002
178.92025377448613
178.0593331807637
177.7597221953475
177.66464291739268
177.6367712580705
177.62913583985346
177.62716356945054
177.62667991131332
177.62657006576967
177.62656007167848
177.62660805966695
177.62677373823948
177.62728885476764
177.62884161287352
177.63341543030825
177.6465435828655
177.68312096732274
177.78163368962518
178.03684819983923
178.66906713516155
180.1559525629611
183.44838453979037
190.2485587771809
203.22000893525865
225.85151742450032
261.6442803273404
311.38436763492615
