# vtk DataFile Version 2.0
Unstructured Grid Example
ASCII
DATASET UNSTRUCTURED_GRID

POINTS 961 float
0.150000006 -0.00839745998 0
0.146666661 -0.00839745998 0
0.143333331 -0.00839745998 0
0.140000001 -0.00839745998 0
0.13666667 -0.00839745998 0
0.13333334 -0.00839745998 0
0.129999995 -0.00839745998 0
0.126666665 -0.00839745998 0
0.123333335 -0.00839745998 0
0.119999997 -0.00839745998 0
0.116666667 -0.00839745998 0
0.113333337 -0.00839745998 0
0.109999999 -0.00839745998 0
0.106666669 -0.00839745998 0
0.103333332 -0.00839745998 0
0.100000001 -0.00839745998 0
0.0966666639 -0.00839745998 0
0.0933333337 -0.00839745998 0
0.0900000036 -0.00839745998 0
0.086666666 -0.00839745998 0
0.0833333358 -0.00839745998 0
0.0799999982 -0.00839745998 0
0.0766666681 -0.00839745998 0
0.0733333305 -0.00839745998 0
0.0700000003 -0.00839745998 0
0.0666666701 -0.00839745998 0
0.0633333325 -0.00839745998 0
0.0599999987 -0.00839745998 0
0.0566666685 -0.00839745998 0
0.0533333346 -0.00839745998 0
0.0500000007 -0.00839745998 0
0.148333326 -0.0112842107 0
0.144999996 -0.0112842107 0
0.141666666 -0.0112842107 0
0.138333336 -0.0112842107 0
0.135000005 -0.0112842107 0
0.13166666 -0.0112842107 0
0.12833333 -0.0112842107 0
0.125 -0.0112842107 0
0.12166667 -0.0112842107 0
0.118333332 -0.0112842107 0
0.115000002 -0.0112842107 0
0.111666664 -0.0112842107 0
0.108333334 -0.0112842107 0
0.104999997 -0.0112842107 0
0.101666667 -0.0112842107 0
0.0983333364 -0.0112842107 0
0.0949999988 -0.0112842107 0
0.0916666687 -0.0112842107 0
0.088333331 -0.0112842107 0
0.0850000009 -0.0112842107 0
0.0816666633 -0.0112842107 0
0.0783333331 -0.0112842107 0
0.075000003 -0.0112842107 0
0.0716666654 -0.0112842107 0
0.0683333352 -0.0112842107 0
0.0649999976 -0.0112842107 0
0.0616666675 -0.0112842107 0
0.0583333336 -0.0112842107 0
0.0549999997 -0.0112842107 0
0.0516666658 -0.0112842107 0
0.0483333319 -0.0112842107 0
0.146666661 -0.0141709624 0
0.143333331 -0.0141709624 0
0.140000001 -0.0141709624 0
0.13666667 -0.0141709624 0
0.13333334 -0.0141709624 0
0.129999995 -0.0141709624 0
0.126666665 -0.0141709624 0
0.123333335 -0.0141709624 0
0.119999997 -0.0141709624 0
0.116666667 -0.0141709624 0
0.113333337 -0.0141709624 0
0.109999999 -0.0141709624 0
0.106666669 -0.0141709624 0
0.103333332 -0.0141709624 0
0.100000001 -0.0141709624 0
0.0966666639 -0.0141709624 0
0.0933333337 -0.0141709624 0
0.0900000036 -0.0141709624 0
0.086666666 -0.0141709624 0
0.0833333358 -0.0141709624 0
0.0799999982 -0.0141709624 0
0.0766666681 -0.0141709624 0
0.0733333305 -0.0141709624 0
0.0700000003 -0.0141709624 0
0.0666666701 -0.0141709624 0
0.0633333325 -0.0141709624 0
0.0599999987 -0.0141709624 0
0.0566666685 -0.0141709624 0
0.0533333346 -0.0141709624 0
0.0500000007 -0.0141709624 0
0.0466666669 -0.0141709624 0
0.144999996 -0.0170577131 0
0.141666666 -0.0170577131 0
0.138333336 -0.0170577131 0
0.135000005 -0.0170577131 0
0.13166666 -0.0170577131 0
0.12833333 -0.0170577131 0
0.125 -0.0170577131 0
0.12166667 -0.0170577131 0
0.118333332 -0.0170577131 0
0.115000002 -0.0170577131 0
0.111666664 -0.0170577131 0
0.108333334 -0.0170577131 0
0.104999997 -0.0170577131 0
0.101666667 -0.0170577131 0
0.0983333364 -0.0170577131 0
0.0949999988 -0.0170577131 0
0.0916666687 -0.0170577131 0
0.088333331 -0.0170577131 0
0.0850000009 -0.0170577131 0
0.0816666633 -0.0170577131 0
0.0783333331 -0.0170577131 0
0.075000003 -0.0170577131 0
0.0716666654 -0.0170577131 0
0.0683333352 -0.0170577131 0
0.0649999976 -0.0170577131 0
0.0616666675 -0.0170577131 0
0.0583333336 -0.0170577131 0
0.0549999997 -0.0170577131 0
0.0516666658 -0.0170577131 0
0.0483333319 -0.0170577131 0
0.0450000018 -0.0170577131 0
0.143333331 -0.0199444648 0
0.140000001 -0.0199444648 0
0.13666667 -0.0199444648 0
0.13333334 -0.0199444648 0
0.129999995 -0.0199444648 0
0.126666665 -0.0199444648 0
0.123333335 -0.0199444648 0
0.119999997 -0.0199444648 0
0.116666667 -0.0199444648 0
0.113333337 -0.0199444648 0
0.109999999 -0.0199444648 0
0.106666669 -0.0199444648 0
0.103333332 -0.0199444648 0
0.100000001 -0.0199444648 0
0.0966666639 -0.0199444648 0
0.0933333337 -0.0199444648 0
0.0900000036 -0.0199444648 0
0.086666666 -0.0199444648 0
0.0833333358 -0.0199444648 0
0.0799999982 -0.0199444648 0
0.0766666681 -0.0199444648 0
0.0733333305 -0.0199444648 0
0.0700000003 -0.0199444648 0
0.0666666701 -0.0199444648 0
0.0633333325 -0.0199444648 0
0.0599999987 -0.0199444648 0
0.0566666685 -0.0199444648 0
0.0533333346 -0.0199444648 0
0.0500000007 -0.0199444648 0
0.0466666669 -0.0199444648 0
0.043333333 -0.0199444648 0
0.141666666 -0.0228312165 0
0.138333336 -0.0228312165 0
0.135000005 -0.0228312165 0
0.13166666 -0.0228312165 0
0.12833333 -0.0228312165 0
0.125 -0.0228312165 0
0.12166667 -0.0228312165 0
0.118333332 -0.0228312165 0
0.115000002 -0.0228312165 0
0.111666664 -0.0228312165 0
0.108333334 -0.0228312165 0
0.104999997 -0.0228312165 0
0.101666667 -0.0228312165 0
0.0983333364 -0.0228312165 0
0.0949999988 -0.0228312165 0
0.0916666687 -0.0228312165 0
0.088333331 -0.0228312165 0
0.0850000009 -0.0228312165 0
0.0816666633 -0.0228312165 0
0.0783333331 -0.0228312165 0
0.075000003 -0.0228312165 0
0.0716666654 -0.0228312165 0
0.0683333352 -0.0228312165 0
0.0649999976 -0.0228312165 0
0.0616666675 -0.0228312165 0
0.0583333336 -0.0228312165 0
0.0549999997 -0.0228312165 0
0.0516666658 -0.0228312165 0
0.0483333319 -0.0228312165 0
0.0450000018 -0.0228312165 0
0.0416666679 -0.0228312165 0
0.140000001 -0.0257179681 0
0.13666667 -0.0257179681 0
0.13333334 -0.0257179681 0
0.129999995 -0.0257179681 0
0.126666665 -0.0257179681 0
0.123333335 -0.0257179681 0
0.119999997 -0.0257179681 0
0.116666667 -0.0257179681 0
0.113333337 -0.0257179681 0
0.109999999 -0.0257179681 0
0.106666669 -0.0257179681 0
0.103333332 -0.0257179681 0
0.100000001 -0.0257179681 0
0.0966666639 -0.0257179681 0
0.0933333337 -0.0257179681 0
0.0900000036 -0.0257179681 0
0.086666666 -0.0257179681 0
0.0833333358 -0.0257179681 0
0.0799999982 -0.0257179681 0
0.0766666681 -0.0257179681 0
0.0733333305 -0.0257179681 0
0.0700000003 -0.0257179681 0
0.0666666701 -0.0257179681 0
0.0633333325 -0.0257179681 0
0.0599999987 -0.0257179681 0
0.0566666685 -0.0257179681 0
0.0533333346 -0.0257179681 0
0.0500000007 -0.0257179681 0
0.0466666669 -0.0257179681 0
0.043333333 -0.0257179681 0
0.0399999991 -0.0257179681 0
0.138333336 -0.0286047198 0
0.135000005 -0.0286047198 0
0.13166666 -0.0286047198 0
0.12833333 -0.0286047198 0
0.125 -0.0286047198 0
0.12166667 -0.0286047198 0
0.118333332 -0.0286047198 0
0.115000002 -0.0286047198 0
0.111666664 -0.0286047198 0
0.108333334 -0.0286047198 0
0.104999997 -0.0286047198 0
0.101666667 -0.0286047198 0
0.0983333364 -0.0286047198 0
0.0949999988 -0.0286047198 0
0.0916666687 -0.0286047198 0
0.088333331 -0.0286047198 0
0.0850000009 -0.0286047198 0
0.0816666633 -0.0286047198 0
0.0783333331 -0.0286047198 0
0.075000003 -0.0286047198 0
0.0716666654 -0.0286047198 0
0.0683333352 -0.0286047198 0
0.0649999976 -0.0286047198 0
0.0616666675 -0.0286047198 0
0.0583333336 -0.0286047198 0
0.0549999997 -0.0286047198 0
0.0516666658 -0.0286047198 0
0.0483333319 -0.0286047198 0
0.0450000018 -0.0286047198 0
0.0416666679 -0.0286047198 0
0.038333334 -0.0286047198 0
0.13666667 -0.0314914696 0
0.13333334 -0.0314914696 0
0.129999995 -0.0314914696 0
0.126666665 -0.0314914696 0
0.123333335 -0.0314914696 0
0.119999997 -0.0314914696 0
0.116666667 -0.0314914696 0
0.113333337 -0.0314914696 0
0.109999999 -0.0314914696 0
0.106666669 -0.0314914696 0
0.103333332 -0.0314914696 0
0.100000001 -0.0314914696 0
0.0966666639 -0.0314914696 0
0.0933333337 -0.0314914696 0
0.0900000036 -0.0314914696 0
0.086666666 -0.0314914696 0
0.0833333358 -0.0314914696 0
0.0799999982 -0.0314914696 0
0.0766666681 -0.0314914696 0
0.0733333305 -0.0314914696 0
0.0700000003 -0.0314914696 0
0.0666666701 -0.0314914696 0
0.0633333325 -0.0314914696 0
0.0599999987 -0.0314914696 0
0.0566666685 -0.0314914696 0
0.0533333346 -0.0314914696 0
0.0500000007 -0.0314914696 0
0.0466666669 -0.0314914696 0
0.043333333 -0.0314914696 0
0.0399999991 -0.0314914696 0
0.0366666652 -0.0314914696 0
0.135000005 -0.0343782231 0
0.13166666 -0.0343782231 0
0.12833333 -0.0343782231 0
0.125 -0.0343782231 0
0.12166667 -0.0343782231 0
0.118333332 -0.0343782231 0
0.115000002 -0.0343782231 0
0.111666664 -0.0343782231 0
0.108333334 -0.0343782231 0
0.104999997 -0.0343782231 0
0.101666667 -0.0343782231 0
0.0983333364 -0.0343782231 0
0.0949999988 -0.0343782231 0
0.0916666687 -0.0343782231 0
0.088333331 -0.0343782231 0
0.0850000009 -0.0343782231 0
0.0816666633 -0.0343782231 0
0.0783333331 -0.0343782231 0
0.075000003 -0.0343782231 0
0.0716666654 -0.0343782231 0
0.0683333352 -0.0343782231 0
0.0649999976 -0.0343782231 0
0.0616666675 -0.0343782231 0
0.0583333336 -0.0343782231 0
0.0549999997 -0.0343782231 0
0.0516666658 -0.0343782231 0
0.0483333319 -0.0343782231 0
0.0450000018 -0.0343782231 0
0.0416666679 -0.0343782231 0
0.038333334 -0.0343782231 0
0.0350000001 -0.0343782231 0
0.13333334 -0.0372649729 0
0.129999995 -0.0372649729 0
0.126666665 -0.0372649729 0
0.123333335 -0.0372649729 0
0.119999997 -0.0372649729 0
0.116666667 -0.0372649729 0
0.113333337 -0.0372649729 0
0.109999999 -0.0372649729 0
0.106666669 -0.0372649729 0
0.103333332 -0.0372649729 0
0.100000001 -0.0372649729 0
0.0966666639 -0.0372649729 0
0.0933333337 -0.0372649729 0
0.0900000036 -0.0372649729 0
0.086666666 -0.0372649729 0
0.0833333358 -0.0372649729 0
0.0799999982 -0.0372649729 0
0.0766666681 -0.0372649729 0
0.0733333305 -0.0372649729 0
0.0700000003 -0.0372649729 0
0.0666666701 -0.0372649729 0
0.0633333325 -0.0372649729 0
0.0599999987 -0.0372649729 0
0.0566666685 -0.0372649729 0
0.0533333346 -0.0372649729 0
0.0500000007 -0.0372649729 0
0.0466666669 -0.0372649729 0
0.043333333 -0.0372649729 0
0.0399999991 -0.0372649729 0
0.0366666652 -0.0372649729 0
0.0333333351 -0.0372649729 0
0.13166666 -0.0401517227 0
0.12833333 -0.0401517227 0
0.125 -0.0401517227 0
0.12166667 -0.0401517227 0
0.118333332 -0.0401517227 0
0.115000002 -0.0401517227 0
0.111666664 -0.0401517227 0
[...]
POINT_DATA 961
SCALARS Temp float 1
LOOKUP_TABLE default
312.5185463843152
262.15389347300044
225.23860187317183
201.8851693824741
188.5466249313711
181.59061879635894
178.2415563937118
176.73684141483218
176.09974940606196
175.84339695003632
175.74467241019227
175.70807620487892
175.6949516481812
175.69038178415687
175.68883214788465
175.6883163249599
175.6881496904932
175.68809877814104
175.68810298888883
175.68817914230482
175.68853284400606
175.69000973034036
175.69586867184918
175.7178586798459
175.795057301717
176.04564511485265
176.78772883485126
178.76501143743445
183.4454425024146
193.20234426084411
211.57643721282537
264.8172691768855
217.3874965201217
185.74524243461553
166.49569265429372
155.8398267509898
150.42244235749797
147.8673611089576
146.73824469890639
146.26653356053572
146.0787898230283
146.00714513936643
145.98078758076727
145.97139896266205
145.96814841912348
145.96704943539206
145.9666898815588
145.96657391728763
145.96654748650985
145.96657882205025
145.966766098093
145.96756692131063
145.97078953306445
145.9830906293412
146.0271635905698
146.17399055910846
146.62322595032742
147.8694087634195
150.96428213614675
157.7713701617097
170.94923145461988
192.5385812833517
229.70580125378166
187.5948866470885
159.9573291797541
143.38826666135415
134.28271133407074
129.66471574946576
127.48495188368743
126.51907331427776
126.11406739416766
125.9522292318015
125.89022906230616
125.8673352449556
125.85915439843902
125.85631277204608
125.8553520718417
125.85503398091178
125.85493436660434
125.85492505809114
125.85500761943048
125.85540297065393
125.8570151685602
125.86324965113923
125.88596368223148
125.96330608106172
126.20678062856886
126.90725133355619
128.72784975346173
132.95701537388496
141.65734204261
157.32588798729276
182.45439289098996
207.20442970644442
169.39637237981256
144.53772339815427
129.5618296851826
121.27430604018987
117.03753550667133
115.02160137480271
114.12164029525367
113.74178353468473
113.58913916458043
113.53037924662067
113.50859780096687
113.50078721512813
113.4980668455372
113.49714595024783
113.49684164336368
113.49675289066057
113.49676371145834
113.49693685711738
113.49768155738211
113.50059630977564
113.5113650280989
113.54868767437156
113.6690319160002
114.02642313874014
114.9942600874272
117.36186776776381
122.55105721109761
132.67389449906887
150.28833921670383
177.64696400948603
194.08383967579428
159.24159288514394
136.0752842722772
121.96171390734024
114.07238152067012
110.00467484604461
108.05568385855246
107.18077612880704
106.80988846034452
106.66034159015825
106.60262137091435
106.58118121576247
106.57348008121507
106.57079565854094
106.56988425247773
106.5695854422111
106.56950661413825
106.56955398125824
106.56986967867306
106.5711428055339
106.57590331461864
106.59264454097817
106.64771556890533
106.81576658454962
107.28754143023517
108.49661433747401
111.30632811073028
117.19537176302202
128.3011247140905
147.09980473498135
175.63980632105455
187.06832818212146
154.02890606709624
131.78819168407463
118.10196303661608
110.3929162734169
106.39567898416381
104.4725969783666
103.60676177870356
103.23893441405808
103.09038793735779
103.03298916005294
103.01164940055818
103.00397961850366
103.00130494578185
103.00039743396013
103.00010370369486
103.0000379825742
103.000140593717
103.00065882531693
103.00264043278553
103.00970140628986
103.03331886405579
103.10707353367121
103.3206831665413
103.8909572408557
105.28695212781942
108.40650220600088
114.74707858227754
126.4219138773069
145.8258243421219
174.89957999460518
183.60098740752323
151.54695661355245
129.76766860239127
116.27730768178961
108.64472478470101
104.67532644236742
102.76182670319243
101.89915532112516
101.53233634317725
101.38410384910304
101.3268013030299
101.30549050523632
101.2978298490992
101.29515746141045
101.29425208371347
101.29396365608036
101.29391814830369
101.29409519638047
101.29487234359851
101.29769587614774
101.30728050699848
101.33781002484854
101.42864340293706
101.67992058037343
102.32369296903956
103.84589366215292
107.15600820241701
113.74684002421044
125.70259480760944
145.37209125748592
174.65515564514675
182.00361035352051
150.4412737542166
128.8742713471899
115.46783358187994
107.8658870890484
103.90698481789492
101.9968978888767
101.13529403002558
100.76879777760779
100.62066214314785
100.56338755757751
100.54208506507713
100.53442682807656
100.53175563666261
100.53085248831405
100.53057090095358
100.53055166902004
100.53081930211964
100.5318909726538
100.53559925044627
100.54761983501642
100.58422956401168
100.68868696264396
100.96714733714283
101.6589409736967
103.2559704477609
106.6680324445928
113.37874982018964
125.45470242945565
145.2260853403217
174.58172413727516
181.31190011968923
149.976529018375
128.50080435509545
115.1282112261004
107.53794639598634
103.58283562533911
101.67393198989699
100.81267911246434
100.44628438320107
100.29817784315392
100.24091135543844
100.21961126581776
100.21195367966729
100.20928333901321
100.20838262115866
100.20810992203097
100.20812132493282
100.20848810542807
100.20985787688102
100.21438931522503
100.22848060275656
100.26978920270244
100.38379324640535
100.67951678124275
101.39895394319238
103.03489134899193
106.49459658934897
113.25556906364955
125.37687386194166
145.18307680898982
174.56139611230543
181.0281928960643
149.79071340997052
128.3521257204694
114.99250974769899
107.40650881254834
103.45271984940676
101.54420971615967
100.68306756432447
100.31670544728361
100.1686071787791
100.11134320544667
100.09004377188828
100.08238657407341
100.07971712255254
100.07881926692313
100.07855660761491
100.07860027283898
100.07906400738503
100.08070209472602
100.08591229424829
100.10155941262438
100.14607606902048
100.2659947714515
100.57141714010454
101.3049037726443
102.95866612591625
106.43802161591454
113.21769217777877
125.3543120747317
145.17128446395466
174.5560930719001
180.91719009928428
149.7196938574744
128.2953943011733
114.94054624854847
107.35603136878595
103.40270397587756
101.49432244205454
100.63321520521524
100.2668629350633
100.11876711111042
100.06150386966495
100.04020465723575
100.03254782409405
100.02987933119498
100.0289846829687
100.0287322536939
100.02880651847642
100.02935500993944
100.03120829526085
100.03691574362797
100.05360074503517
100.10006276219119
100.22323817932207
100.53349837063996
101.27331876481902
102.93433912905411
106.42093612598595
113.20689122626446
125.34823157719742
145.16828315120324
174.55479500439216
180.8753725459023
149.693561336494
128.27453888507077
114.92137990160971
107.33737183656133
103.38419328693023
101.47584936741322
100.61475629723304
100.24840640376301
100.1003118870902
100.04304893526769
100.02174992569259
100.0140935019864
100.01142607550305
100.01053466326178
100.01029169091692
100.0103920279703
100.01100682539261
100.01301423889358
100.01904664497175
100.03634938253718
100.0838641476734
100.2086391929277
100.52105347050305
101.26342847183416
102.92710668284614
106.41611922646888
113.20399723234681
125.34667641694165
145.16754033656804
174.55451927647636
180.86029311547762
149.68427649983178
128.26712957301748
114.91451897744741
107.3307016312318
103.37756936006839
101.4692361583723
100.6081466596694
100.24179734262195
100.09370324189356
100.03644056792864
100.01514205015255
100.00748624754911
100.00482006268068
100.00393171711298
100.00369672950522
100.00381709401329
100.0044784626554
100.00658478037593
100.0128074194582
100.03043953437711
100.07846500811287
100.20394475489844
100.51722072587732
101.26052567680438
102.92508723720066
106.41484433097123
113.20327030961437
125.34630704127595
145.16735172532134
174.55444479149645
180.8549881551469
149.6810568908054
128.26456523544633
114.91214310792367
107.32838356705389
103.37525970401344
101.46693764559357
100.60584844247273
100.239501354332
100.09140828563268
100.03414666672451
100.01284934746653
100.00519483427722
100.00253036139694
100.00164497977653
100.0014163144824
100.00155068650525
100.00224156949797
100.0044050146023
100.01072787494886
100.0285180746393
100.07676669278378
100.20252718900173
100.51611647826421
101.25973156876722
102.92456326937291
106.41453028973027
113.20310113592981
125.34622498132508
145.16734750530694
174.5544406369263
180.85319442209138
149.67998801425477
128.26366932468363
114.91134869431212
107.32760583645867
103.37448370574185
101.46616463174661
100.60507698593268
100.23873274590512
100.09064283078638
100.03338496770408
100.01209113767537
100.00443984104126
100.00177840337253
100.00089641974736
100.00067283922557
100.00081640392965
100.0015243596419
100.0037176892264
100.01008826554738
100.02794715720975
100.07628419831536
100.2021463216632
100.51583962895457
101.25954917934165
102.92446009392094
106.41448424190659
113.20309324452401
125.34622560140181
145.16736728540442
174.55447932924284
180.85258641559344
149.67963406249177
128.26338394851314
114.91108958947368
107.32734123007295
103.37423850013471
101.46592344011808
100.60484733134028
100.23851356427201
100.09043484340197
100.03318820685834
100.01190441913133
100.00426147064753
100.00160649984419
100.00072965466148
100.00051094454199
100.00066066059142
100.00137792210673
100.00358560206419
100.00997688529836
100.02786295040922
100.07623215195318
100.20212830790086
100.51585398663192
101.25959032949548
102.92452160909178
106.41455983064265
113.20317682545456
125.34633455621623
145.16746937396368
174.5546362801096
180.8524138741118
149.67948109097236
128.2633173734259
114.91103381464332
107.32729223745825
103.37420853207304
101.46591662829996
100.60487132549248
100.23857188735481
100.09052913148287
100.03331518864037
100.0120586282314
100.0044362771778
100.00179555164046
100.00092799926303
100.00071548386593
100.00087013759021
100.00159260924539
100.00380682102504
100.01020643095386
100.02810238558764
100.07648228471645
100.20238885937313
100.51612350184155
101.25986803767556
102.92480518751543
106.41484824794392
113.20346185563064
125.3466311386957
145.16780015850802
174.55508254597584
180.8523754879748
149.6794742136298
128.26333821034288
114.91106216704917
107.32739525969492
103.37437551603686
101.46617944392838
100.60523877397128
100.23904885658598
100.09111025087769
100.03398503578883
100.01279685342183
100.005221918701
100.00261108990114
100.00176081715522
100.0015577448935
100.00171768650398
100.00244369112146
100.00466099618174
100.01106381438898
100.02896318728033
100.07734649133987
100.20325622736448
100.51699322741538
101.2607395750098
102.92567836859294
106.41572334380147
113.20435555626482
125.3475425981204
145.16882836127775
174.55646878322548
180.85234606283362
149.67957292277734
128.2635195762607
114.91136569429254
107.3278896334358
103.37511764986502
101.46722341110822
100.60661014190973
100.24074270419379
100.09308601803407
100.0361826877951
100.01515155054683
100.0076767756385
100.00512378199117
100.00430390383809
100.00411554463085
100.00428224901472
100.00501144801885
100.00723055046053
100.01363467672715
100.03153517879193
100.07991948584066
100.20583003461903
100.51956831056944
101.26331618267784
102.92825833079243
106.418308050439
113.20696953652022
125.35025485376096
145.17186357865657
174.56055287128956
180.85258894541585
149.68000458474552
128.26421499869758
114.9125749989949
107.32974695541014
103.37782001747598
101.47087043680578
100.61121400227961
100.24621354044666
100.09925728459804
100.04286094222815
100.02215883745548
100.01487664200194
100.0124255765466
100.0116547183855
100.01148792506734
100.01166342189815
100.01239605266535
100.01461653988586
100.02102133736919
100.03892226207566
100.08730691216937
100.21321766674906
100.52695631663948
101.27070560541156
102.93565306990504
106.42573071199357
113.21446798975634
125.3580473694336
145.18060915007527
174.57228825376595
180.85346755036605
149.68160759893124
128.26695984907178
114.9169996169148
107.33637413231945
103.38705399630388
101.48284834473215
100.62576659357063
100.26290655933057
100.11753653379569
100.06219123126795
100.04211419269132
100.03516704017167
100.03287841745542
100.03217914914981
100.0320412188788
100.03222745194022
100.03296382085266
100.03518557277638
100.04159082402182
100.05949196714447
100.10787682205638
100.23378831828444
100.54752900361133
101.29128516197895
102.95625391162162
106.4464114529247
113.2354189381148
125.37987927517837
145.20521195144204
174.60515776642754
180.85679261341298
149.68746792006098
128.2768680069847
114.93240085050184
107.3586306289718
103.41682996474083
101.51993929433213
100.66914959111284
100.31108159157243
100.16896018906102
100.11558287710506
100.0965764841957
100.09015413602437
100.08809838980028
100.08749324318282
100.08739019088053
100.08758839493676
100.08832861416263
100.09055154741321
100.09695719210717
100.11485859545479
100.16324397801672
100.28915726373526
100.60290424848426
101.34668210840591
103.01172876771574
106.50213544723869
113.29197081004139
125.43902460053374
145.27214535114987
174.69423831699805
180.86881302759417
149.70832357708736
128.31065583507151
114.9830688849559
107.42880612277877
103.50682176179032
101.62762531155307
100.7907330619325
100.44232824350732
100.30618824763744
100.25612128610184
100.23875899916312
100.2330727160687
100.23131594779915
100.23082187219416
100.23075684402527
100.23096711814755
100.23171096637935
100.23393498040649
100.2403410685155
100.25824310012777
100.30663050384733
100.43255051266799
100.74632017567845
101.49017270525027
103.15546715095401
106.64666982065599
113.43898264882392
125.5934582341725
145.44772647041216
174.92664746781887
180.90945081896663
149.77720965358716
128.41848459288397
115.13848407033933
107.63495648534574
103.7601872944329
101.91941438419958
101.1100272790247
100.77907149709662
100.65278635605691
100.60769136835235
100.59257987495667
100.58781401652833
100.58640018110282
100.58602343816024
100.5859957241029
100.58621716790647
100.58696417317843
100.58918920064625
100.59559612393413
100.61350047918705
100.6618954614757
100.78784035482255
101.10169070627079
101.84580251274127
103.51190314575972
107.005572440218
113.80516362040112
125.98024088055838
145.8898147864992
175.5078314342264
181.0390751907252
149.98973079477182
128.73852557207417
115.57986619633876
108.19486787292179
104.42053213839803
102.65408206180277
101.89319514135238
101.59030794887309
101.47845472931037
101.43998270112274
101.4276035245613
101.42386048316062
101.42279778199946
101.42253252778275
101.42253771225573
101.42276845924327
101.42351821136997
101.42574468064733
101.43215443326872
101.45006751965661
101.49849072154264
101.6245255382796
101.93865698472176
102.68362893696045
104.35229328150048
107.85337235161722
114.67359790210135
126.90351589375567
146.95068224108925
176.89031449450803
181.42170009993504
150.59473432269957
129.61133007475965
116.72941237569934
109.59003094393844
106.0045171959702
104.36539854354551
103.680407421568
103.41745848499255
103.32424555948867
103.293553078203
103.28410655003691
103.28137340220438
103.2806311552734
103.28046100742641
103.28049308776247
103.28073107185257
103.28148344025546
103.28371321091429
103.29013327566553
103.30807906809125
103.35660495113267
103.48295617819025
103.79803969180549
104.54579362977414
106.22233534431292
109.74488986176793
116.62115316115407
128.9898313359841
149.35942838995288
179.9929066747047
182.45713379686694
152.16669460410802
131.77593509324566
119.44951223770295
112.75599423228385
109.48262857324653
108.03647837815817
107.45598552301043
107.24283946053787
107.17071874309178
107.14805466546089
107.14138835414703
107.13954234270562
107.13906326458842
107.13896590727003
107.13901760826501
107.13926179289386
107.14001908915563
107.1422611594085
107.14871892184539
107.1667825462483
107.21566878639052
107.34309462952933
107.6612818328083
108.41769319999793
110.11743040447838
113.69933117438558
120.71964064024637
133.41749438821745
154.48837449485958
186.49703081083095
184.99699210507396
155.852292882456
136.60802396797408
125.24716983303034
119.25735598491589
116.44011315269225
115.249870876272
114.7945287533622
114.63538455937534
114.58409584524263
114.56871102048066
114.56437941121217
114.56322650680274
114.56294130594588
114.5628965828122
114.56296233597375
114.56321351740017
114.5639845886591
114.56627063569803
114.57286418637547
114.59133913362261
114.64144155578099
114.77235438221362
115.10018954561025
115.88219532469098
117.64658411154328
121.38284738482321
128.7488676688566
142.16770754938756
164.62878345532206
199.0924738838075
190.58744792207392
163.57482737727528
146.22739953522915
136.29353525847733
131.29319247250373
129.0555740534672
128.15780443918678
127.83166198293375
127.72324560125134
127.68991395608063
127.68034056305756
127.67775192595057
127.67708797869913
127.6769314612838
127.676920604108
127.67699964645094
127.67726880558102
127.67809097870077
127.68053129918542
127.68758988646356
127.70743190275533
127.76143442996418
127.90307179718434
128.25919365142178
129.11221912365627
131.044872669777
135.15373814827382
143.28322447256753
158.1359079435429
183.05425469120672
221.364075709997
201.55709352067186
177.95477354222587
163.10151748357498
155.1169558048781
151.31520293912243
149.70460153825354
149.09195930816324
148.88040068232567
148.813306808279
148.7935411542094
148.7880792360718
148.7866495226724
148.7862956742485
148.78622196870515
148.78623554446298
148.786336297387
148.78666232553746
148.78766023055047
148.79062479054792
148.79921000361267
148.82337129465853
148.88917222845424
149.06175715356702
149.49523151124845
150.53089209785887
152.8667075892426
157.79786978814596
167.45682348932712
184.86551416696167
213.53453405544096
256.9007009013048
221.25047912218176
200.88406890702322
189.55434800064788
183.8048395536558
181.21666049490454
180.17741449197757
179.80142591138716
179.67740409778085
179.639648092209
179.62892144102543
179.626053168932
179.6253227543069
179.6251505246453
179.62512567813965
179.62517077467393
179.62533872124223
179.62586394381938
179.6274470148527
179.63209992938704
179.64542445317943
179.68243219470844
179.7816724090265
180.03731591891346
180.66602360987483
182.13166834886906
185.3444455408722
191.90974196094052
204.3083378067895
225.76979681411626
259.54833814135185
305.7423856035532
