# vtk DataFile Version 2.0
Unstructured Grid Example
ASCII
DATASET UNSTRUCTURED_GRID

POINTS 961 float
0.150000006 -0.00839745998 0
0.146666661 -0.00839745998 0
0.143333331 -0.00839745998 0
0.140000001 -0.00839745998 0
0.13666667 -0.00839745998 0
0.13333334 -0.00839745998 0
0.129999995 -0.00839745998 0
0.126666665 -0.00839745998 0
0.123333335 -0.00839745998 0
0.119999997 -0.00839745998 0
0.116666667 -0.00839745998 0
0.113333337 -0.00839745998 0
0.109999999 -0.00839745998 0
0.106666669 -0.00839745998 0
0.103333332 -0.00839745998 0
0.100000001 -0.00839745998 0
0.0966666639 -0.00839745998 0
0.0933333337 -0.00839745998 0
0.0900000036 -0.00839745998 0
0.086666666 -0.00839745998 0
0.0833333358 -0.00839745998 0
0.0799999982 -0.00839745998 0
0.0766666681 -0.00839745998 0
0.0733333305 -0.00839745998 0
0.0700000003 -0.00839745998 0
0.0666666701 -0.00839745998 0
0.0633333325 -0.00839745998 0
0.0599999987 -0.00839745998 0
0.0566666685 -0.00839745998 0
0.0533333346 -0.00839745998 0
0.0500000007 -0.00839745998 0
0.148333326 -0.0112842107 0
0.144999996 -0.0112842107 0
0.141666666 -0.0112842107 0
0.138333336 -0.0112842107 0
0.135000005 -0.0112842107 0
0.13166666 -0.0112842107 0
0.12833333 -0.0112842107 0
0.125 -0.0112842107 0
0.12166667 -0.0112842107 0
0.118333332 -0.0112842107 0
0.115000002 -0.0112842107 0
0.111666664 -0.0112842107 0
0.108333334 -0.0112842107 0
0.104999997 -0.0112842107 0
0.101666667 -0.0112842107 0
0.0983333364 -0.0112842107 0
0.0949999988 -0.0112842107 0
0.0916666687 -0.0112842107 0
0.088333331 -0.0112842107 0
0.0850000009 -0.0112842107 0
0.0816666633 -0.0112842107 0
0.0783333331 -0.0112842107 0
0.075000003 -0.0112842107 0
0.0716666654 -0.0112842107 0
0.0683333352 -0.0112842107 0
0.0649999976 -0.0112842107 0
0.0616666675 -0.0112842107 0
0.0583333336 -0.0112842107 0
0.0549999997 -0.0112842107 0
0.0516666658 -0.0112842107 0
0.0483333319 -0.0112842107 0
0.146666661 -0.0141709624 0
0.143333331 -0.0141709624 0
0.140000001 -0.0141709624 0
0.13666667 -0.0141709624 0
0.13333334 -0.0141709624 0
0.129999995 -0.0141709624 0
0.126666665 -0.0141709624 0
0.123333335 -0.0141709624 0
0.119999997 -0.0141709624 0
0.116666667 -0.0141709624 0
0.113333337 -0.0141709624 0
0.109999999 -0.0141709624 0
0.106666669 -0.0141709624 0
0.103333332 -0.0141709624 0
0.100000001 -0.0141709624 0
0.0966666639 -0.0141709624 0
0.0933333337 -0.0141709624 0
0.0900000036 -0.0141709624 0
0.086666666 -0.0141709624 0
0.0833333358 -0.0141709624 0
0.0799999982 -0.0141709624 0
0.0766666681 -0.0141709624 0
0.0733333305 -0.0141709624 0
0.0700000003 -0.0141709624 0
0.0666666701 -0.0141709624 0
0.0633333325 -0.0141709624 0
0.0599999987 -0.0141709624 0
0.0566666685 -0.0141709624 0
0.0533333346 -0.0141709624 0
0.0500000007 -0.0141709624 0
0.0466666669 -0.0141709624 0
0.144999996 -0.0170577131 0
0.141666666 -0.0170577131 0
0.138333336 -0.0170577131 0
0.135000005 -0.0170577131 0
0.13166666 -0.0170577131 0
0.12833333 -0.0170577131 0
0.125 -0.0170577131 0
0.12166667 -0.0170577131 0
0.118333332 -0.0170577131 0
0.115000002 -0.0170577131 0
0.111666664 -0.0170577131 0
0.108333334 -0.0170577131 0
0.104999997 -0.0170577131 0
0.101666667 -0.0170577131 0
0.0983333364 -0.0170577131 0
0.0949999988 -0.0170577131 0
0.0916666687 -0.0170577131 0
0.088333331 -0.0170577131 0
0.0850000009 -0.0170577131 0
0.0816666633 -0.0170577131 0
0.0783333331 -0.0170577131 0
0.075000003 -0.0170577131 0
0.0716666654 -0.0170577131 0
0.0683333352 -0.0170577131 0
0.0649999976 -0.0170577131 0
0.0616666675 -0.0170577131 0
0.0583333336 -0.0170577131 0
0.0549999997 -0.0170577131 0
0.0516666658 -0.0170577131 0
0.0483333319 -0.0170577131 0
0.0450000018 -0.0170577131 0
0.143333331 -0.0199444648 0
0.140000001 -0.0199444648 0
0.13666667 -0.0199444648 0
0.13333334 -0.0199444648 0
0.129999995 -0.0199444648 0
0.126666665 -0.0199444648 0
0.123333335 -0.0199444648 0
0.119999997 -0.0199444648 0
0.116666667 -0.0199444648 0
0.113333337 -0.0199444648 0
0.109999999 -0.0199444648 0
0.106666669 -0.0199444648 0
0.103333332 -0.0199444648 0
0.100000001 -0.0199444648 0
0.0966666639 -0.0199444648 0
0.0933333337 -0.0199444648 0
0.0900000036 -0.0199444648 0
0.086666666 -0.0199444648 0
0.0833333358 -0.0199444648 0
0.0799999982 -0.0199444648 0
0.0766666681 -0.0199444648 0
0.0733333305 -0.0199444648 0
0.0700000003 -0.0199444648 0
0.0666666701 -0.0199444648 0
0.0633333325 -0.0199444648 0
0.0599999987 -0.0199444648 0
0.0566666685 -0.0199444648 0
0.0533333346 -0.0199444648 0
0.0500000007 -0.0199444648 0
0.0466666669 -0.0199444648 0
0.043333333 -0.0199444648 0
0.141666666 -0.0228312165 0
0.138333336 -0.0228312165 0
0.135000005 -0.0228312165 0
0.13166666 -0.0228312165 0
0.12833333 -0.0228312165 0
0.125 -0.0228312165 0
0.12166667 -0.0228312165 0
0.118333332 -0.0228312165 0
0.115000002 -0.0228312165 0
0.111666664 -0.0228312165 0
0.108333334 -0.0228312165 0
0.104999997 -0.0228312165 0
0.101666667 -0.0228312165 0
0.0983333364 -0.0228312165 0
0.0949999988 -0.0228312165 0
0.0916666687 -0.0228312165 0
0.088333331 -0.0228312165 0
0.0850000009 -0.0228312165 0
0.0816666633 -0.0228312165 0
0.0783333331 -0.0228312165 0
0.075000003 -0.0228312165 0
0.0716666654 -0.0228312165 0
0.0683333352 -0.0228312165 0
0.0649999976 -0.0228312165 0
0.0616666675 -0.0228312165 0
0.0583333336 -0.0228312165 0
0.0549999997 -0.0228312165 0
0.0516666658 -0.0228312165 0
0.0483333319 -0.0228312165 0
0.0450000018 -0.0228312165 0
0.0416666679 -0.0228312165 0
0.140000001 -0.0257179681 0
0.13666667 -0.0257179681 0
0.13333334 -0.0257179681 0
0.129999995 -0.0257179681 0
0.126666665 -0.0257179681 0
0.123333335 -0.0257179681 0
0.119999997 -0.0257179681 0
0.116666667 -0.0257179681 0
0.113333337 -0.0257179681 0
0.109999999 -0.0257179681 0
0.106666669 -0.0257179681 0
0.103333332 -0.0257179681 0
0.100000001 -0.0257179681 0
0.0966666639 -0.0257179681 0
0.0933333337 -0.0257179681 0
0.0900000036 -0.0257179681 0
0.086666666 -0.0257179681 0
0.0833333358 -0.0257179681 0
0.0799999982 -0.0257179681 0
0.0766666681 -0.0257179681 0
0.0733333305 -0.0257179681 0
0.0700000003 -0.0257179681 0
0.0666666701 -0.0257179681 0
0.0633333325 -0.0257179681 0
0.0599999987 -0.0257179681 0
0.0566666685 -0.0257179681 0
0.0533333346 -0.0257179681 0
0.0500000007 -0.0257179681 0
0.0466666669 -0.0257179681 0
0.043333333 -0.0257179681 0
0.0399999991 -0.0257179681 0
0.138333336 -0.0286047198 0
0.135000005 -0.0286047198 0
0.13166666 -0.0286047198 0
0.12833333 -0.0286047198 0
0.125 -0.0286047198 0
0.12166667 -0.0286047198 0
0.118333332 -0.0286047198 0
0.115000002 -0.0286047198 0
0.111666664 -0.0286047198 0
0.108333334 -0.0286047198 0
0.104999997 -0.0286047198 0
0.101666667 -0.0286047198 0
0.0983333364 -0.0286047198 0
0.0949999988 -0.0286047198 0
0.0916666687 -0.0286047198 0
0.088333331 -0.0286047198 0
0.0850000009 -0.0286047198 0
0.0816666633 -0.0286047198 0
0.0783333331 -0.0286047198 0
0.075000003 -0.0286047198 0
0.0716666654 -0.0286047198 0
0.0683333352 -0.0286047198 0
0.0649999976 -0.0286047198 0
0.0616666675 -0.0286047198 0
0.0583333336 -0.0286047198 0
0.0549999997 -0.0286047198 0
0.0516666658 -0.0286047198 0
0.0483333319 -0.0286047198 0
0.0450000018 -0.0286047198 0
0.0416666679 -0.0286047198 0
0.038333334 -0.0286047198 0
0.13666667 -0.0314914696 0
0.13333334 -0.0314914696 0
0.129999995 -0.0314914696 0
0.126666665 -0.0314914696 0
0.123333335 -0.0314914696 0
0.119999997 -0.0314914696 0
0.116666667 -0.0314914696 0
0.113333337 -0.0314914696 0
0.109999999 -0.0314914696 0
0.106666669 -0.0314914696 0
0.103333332 -0.0314914696 0
0.100000001 -0.0314914696 0
0.0966666639 -0.0314914696 0
0.0933333337 -0.0314914696 0
0.0900000036 -0.0314914696 0
0.086666666 -0.0314914696 0
0.0833333358 -0.0314914696 0
0.0799999982 -0.0314914696 0
0.0766666681 -0.0314914696 0
0.0733333305 -0.0314914696 0
0.0700000003 -0.0314914696 0
0.0666666701 -0.0314914696 0
0.0633333325 -0.0314914696 0
0.0599999987 -0.0314914696 0
0.0566666685 -0.0314914696 0
0.0533333346 -0.0314914696 0
0.0500000007 -0.0314914696 0
0.0466666669 -0.0314914696 0
0.043333333 -0.0314914696 0
0.0399999991 -0.0314914696 0
0.0366666652 -0.0314914696 0
0.135000005 -0.0343782231 0
0.13166666 -0.0343782231 0
0.12833333 -0.0343782231 0
0.125 -0.0343782231 0
0.12166667 -0.0343782231 0
0.118333332 -0.0343782231 0
0.115000002 -0.0343782231 0
0.111666664 -0.0343782231 0
0.108333334 -0.0343782231 0
0.104999997 -0.0343782231 0
0.101666667 -0.0343782231 0
0.0983333364 -0.0343782231 0
0.0949999988 -0.0343782231 0
0.0916666687 -0.0343782231 0
0.088333331 -0.0343782231 0
0.0850000009 -0.0343782231 0
0.0816666633 -0.0343782231 0
0.0783333331 -0.0343782231 0
0.075000003 -0.0343782231 0
0.0716666654 -0.0343782231 0
0.0683333352 -0.0343782231 0
0.0649999976 -0.0343782231 0
0.0616666675 -0.0343782231 0
0.0583333336 -0.0343782231 0
0.0549999997 -0.0343782231 0
0.0516666658 -0.0343782231 0
0.0483333319 -0.0343782231 0
0.0450000018 -0.0343782231 0
0.0416666679 -0.0343782231 0
0.038333334 -0.0343782231 0
0.0350000001 -0.0343782231 0
0.13333334 -0.0372649729 0
0.129999995 -0.0372649729 0
0.126666665 -0.0372649729 0
0.123333335 -0.0372649729 0
0.119999997 -0.0372649729 0
0.116666667 -0.0372649729 0
0.113333337 -0.0372649729 0
0.109999999 -0.0372649729 0
0.106666669 -0.0372649729 0
0.103333332 -0.0372649729 0
0.100000001 -0.0372649729 0
0.0966666639 -0.0372649729 0
0.0933333337 -0.0372649729 0
0.0900000036 -0.0372649729 0
0.086666666 -0.0372649729 0
0.0833333358 -0.0372649729 0
0.0799999982 -0.0372649729 0
0.0766666681 -0.0372649729 0
0.0733333305 -0.0372649729 0
0.0700000003 -0.0372649729 0
0.0666666701 -0.0372649729 0
0.0633333325 -0.0372649729 0
0.0599999987 -0.0372649729 0
0.0566666685 -0.0372649729 0
0.0533333346 -0.0372649729 0
0.0500000007 -0.0372649729 0
0.0466666669 -0.0372649729 0
0.043333333 -0.0372649729 0
0.0399999991 -0.0372649729 0
0.0366666652 -0.0372649729 0
0.0333333351 -0.0372649729 0
0.13166666 -0.0401517227 0
0.12833333 -0.0401517227 0
0.125 -0.0401517227 0
0.12166667 -0.0401517227 0
0.118333332 -0.0401517227 0
0.115000002 -0.0401517227 0
0.111666664 -0.0401517227 0
[...]
POINT_DATA 961
SCALARS Temp float 1
LOOKUP_TABLE default
326.4919957751731
276.0138875551048
237.9152107408875
212.7032013159621
197.48781441051682
189.04476151513106
184.70152716340345
182.61305032532584
181.66674640011638
181.25975303800703
181.09253730095736
181.026550823648
181.00141970414208
180.99214786460857
180.98882330353567
180.98765930142366
180.98726407763255
180.98714126114984
180.98715045912851
180.98734583523142
180.98818169924445
180.9913908305726
181.00303084413946
181.04278262138993
181.1694030050082
181.54190538517426
182.54341885697752
184.97947120241832
190.29504872832032
200.65216385741803
219.15544327645492
278.46894614979243
230.62145426452705
197.46545308525538
176.30513222302554
163.90942086130798
157.20075967813412
153.82120267550536
152.22413303431523
151.5108613068017
151.2077646586593
151.08449760674102
151.03627146952806
151.0180436258896
151.0113625214745
151.00897884823823
151.00815358587167
151.00787717159733
151.00781161083523
151.00789519007694
151.00835020179613
151.01014642665615
151.01677424706799
151.03985614818123
151.11511278676107
151.34287929026635
151.97645692104564
153.58054319823685
157.2440418142233
164.73901988800446
178.4339819653526
200.02768261048143
242.13238470170037
199.24674400612065
170.0403189033146
151.6938692625481
141.04540662121028
135.3090684681595
132.42320057566036
131.05820694566427
130.44719594065393
130.18678008301674
130.0805272979956
130.03882171894196
130.02301074708814
130.0171981849214
130.01512162763308
130.01439930740466
130.01416485867858
130.01414239019184
130.0143506681626
130.0152673206509
130.01871471670216
130.03092390966387
130.07155171370775
130.1976644388773
130.55959493444624
131.51127319538554
133.78439379714283
138.6791717680045
148.12328438384193
164.30797301213445
189.34511831578754
217.84643614004298
179.15981906976904
152.84916388421493
136.29005140438628
126.6347277020352
121.40060600856953
118.74892754820917
117.48594935642835
116.91692169043752
116.67298794451922
116.57295031939674
116.53351490256208
116.51850742427828
116.51297297691731
116.5109919553089
116.51030445120509
116.51009570050631
116.510127979943
116.51054392621639
116.5122021053209
116.51817503252272
116.53840831256989
116.60260070859644
116.79198556269078
117.30738537100554
118.59127371943518
121.49830241259698
127.44615998836343
138.39340969329567
156.57582400998405
183.88805793137072
202.94033933033327
167.31218554522536
142.87961478071256
127.35829269657987
118.22473433208984
113.2320098468945
110.68430795122863
109.46350533089262
108.91076253349104
108.67286396859643
108.57498919960608
108.5363079843404
108.52155692485174
108.5161095409129
108.5141560868918
108.51348338649353
108.51330047835017
108.51342035879316
108.51415077306777
108.51688139021785
108.52628679498362
108.55669611054152
108.64859871511969
108.90647387941216
109.5738491270134
111.15725431196158
114.58372291472008
121.32079714186504
133.3433899621631
152.80564628543692
181.40895464475977
194.49128380176992
160.84400675123945
137.51184847994472
122.54388785687273
113.66536527494682
108.78154335109825
106.27745970472121
105.07322056267053
104.5265021663236
104.29071681376942
104.19356488474122
104.15512401965664
104.14045196337644
104.1350305836133
104.13308767728307
104.13242750750948
104.1322788995889
104.13252535977212
104.13368630129418
104.1378018143826
104.15134480434274
104.19314103539351
104.31361951838971
104.63622574162326
105.43472422733622
107.25382305198956
111.05485307781179
118.32114507846904
131.0004581405567
151.1642627966231
180.40319042171956
190.04322602662324
157.55606323472733
134.81375509980828
120.11907060401039
111.35723630366131
106.51985385408048
104.03319042309047
102.8351859825697
102.29061091330192
102.05554069413539
101.95862207493366
101.92025574269967
101.90560785611665
101.90019398881266
101.89825694386937
101.89761072204196
101.89751052409477
101.8979221739528
101.89961461908936
101.90532671931908
101.92329723380467
101.97634114207392
102.1227358586751
102.499053449691
103.39698897941499
105.37984420667526
109.42061925396774
116.9963974567229
130.02314971866056
150.52191945793078
180.03563758946743
187.85457277643496
155.98958610725336
133.5395260702179
118.97094580978307
110.25945586868362
105.44091101585711
102.96091784697236
101.76517391493724
101.22133634891335
100.98650229104547
100.88965670926449
100.85131313653687
100.83667238431106
100.83126194479152
100.82933067782159
100.82870194551879
100.82866254550576
100.82926931900771
100.83154998090978
100.8389035385809
100.86108340125824
100.92396156344932
101.09112605235448
101.50684369423934
102.47160655379935
104.55548855426699
108.73147395740324
116.4658325285011
129.6538851244392
150.29384312367796
179.913261345246
186.84138103225138
155.28535076723844
132.97055361984337
118.45668912370063
109.76581715367311
104.95457275179596
102.47704915551218
101.28209992907303
100.73851019720063
100.50375194563405
100.40692893384174
100.36859229192481
100.35395377082914
100.3485457091651
100.34662084441706
100.34601360695486
100.34604326655729
100.34685825060507
100.34972260724356
100.35858348150141
100.38432485654245
100.45484330906824
100.63679921418847
101.0782351334972
102.08298867367262
104.22215896869776
108.46555186611025
116.27177937874339
129.52640696439252
150.21964111832992
179.87575519440915
186.3972771317309
154.98456029850058
132.7288391380297
118.23749679065267
109.55468672416215
104.74616427863224
102.26951867449885
101.07483845446211
100.53133194194929
100.29659704985535
100.19978123940668
100.16144669442203
100.1468093481892
100.14140367393199
100.13948611075328
100.13890252516151
100.13900331808328
100.14001829498086
100.1434020896679
100.15350135081505
100.18193392403735
100.25775212130293
100.4491185296985
100.90555521678934
101.9316579032859
104.09776855280107
108.37110080293267
116.20645014449792
129.4857859678918
150.19724225832783
179.86500372252488
186.2118220225284
154.86190820287754
132.63058151486365
118.14809561549575
109.4682976430877
104.66077297193414
102.18443198997127
100.98984179699707
100.44636194132116
100.21163437958819
100.11482079844518
100.07648702336266
100.06185069519542
100.05644756962542
100.05453791290344
100.05397796430016
100.05414513299276
100.0553331925868
100.0591324647859
100.07014434768708
100.10040020690157
100.17951528252046
100.37625302132678
100.84053230828479
101.87684077552255
104.05471813722485
108.34001010078579
116.18605260355938
129.47375780958535
150.1909535555596
179.86211574915646
186.13749548533585
154.8138631138685
132.5921758528045
118.11303689445997
109.43433287997954
104.62715282511707
102.15091019924698
100.95635399678139
100.41288177968325
100.17815747553693
100.0813448159227
100.04301167428889
100.0283764720543
100.02297611752321
100.02107430045324
100.02053590643898
100.02075914228742
100.02208235834406
100.0261810230715
100.03779835619792
100.0691663543771
100.1501280368475
100.34962502276223
100.81759591753584
101.85830258585533
104.04082864486872
108.33046111656142
116.18008673139718
129.47040096257504
150.1892682757812
179.86140949464667
186.10894444163526
154.7957185656438
132.57768999947828
118.09973852128817
109.42144481148416
104.61438036921976
102.1381693505997
100.94362317990729
100.40015349227794
100.16543053035791
100.06861878864902
100.03028694010044
100.01565340112631
100.01025620971907
100.00836175515512
100.00784145122955
100.00810773308487
100.00952649800823
100.01382012631653
100.02580034603245
100.05778117696475
100.1396777375038
100.3404561488968
100.80999945003468
101.8524266486741
104.03662656251042
108.32771268718302
116.17845262760248
129.46952776134285
150.18883057557946
179.86123154665268
186.09830240790143
154.78906345983395
132.57238569826941
118.09486165520362
109.4167034699319
104.60967003062369
102.13347969016836
100.93893633610728
100.39547130496422
100.16075112738277
100.06394219880869
100.02561341111345
100.0109831474561
100.00559020960283
100.00370284399594
100.00319690937638
100.00349355213557
100.00497378530672
100.00938263288334
100.02156015515487
100.0538473185383
100.13617333111176
100.33749333652129
100.8076482653572
101.85069344293031
104.03544859188615
108.32698232517919
116.17804465576845
129.469325958846
150.18877979397968
179.86122380916356
186.09447555480813
154.78671081972234
132.57046530347054
118.09313192023322
109.41501857623742
104.60799652367291
102.13181438979042
100.93727673694484
100.39381919751007
100.15910710971842
100.06230721735551
100.02398683591363
100.00936427002274
100.00397858069898
100.00209925788687
100.00160499701974
100.00192192500222
100.00343857132155
100.00790958310527
100.02018478172948
100.05261153846641
100.13511756407951
100.33664667229048
100.80701975336375
101.8502687522262
104.03519841275549
108.32686322070957
116.17801589529871
129.46933859982965
150.18883646844327
179.86132692602746
186.09312036407164
154.78589394245546
132.5698139160205
118.09254003919527
109.41443310913733
104.60744313054632
102.13127499046925
100.93676264039337
100.39333003707509
100.15864414114135
100.06186994976477
100.02357236061196
100.00896866148334
100.00359767377456
100.00173015783204
100.00124711671724
100.00157795768514
100.0031151153736
100.00761716337833
100.01993674413701
100.0524217632903
100.13499731428946
100.33660120602396
100.80704700078323
101.85035860567608
104.03533780206372
108.32703839692877
116.17821460629511
129.46957734261778
150.1890883034874
179.8616885959395
186.09268570100897
154.78558633676144
132.5696355657645
118.09239573726694
109.41431754805372
104.60737396434756
102.13126267046209
100.93682077122821
100.39346494180481
100.15885730982096
100.06215367276079
100.02391452658989
100.00935511386704
100.00401506186934
100.00216809947169
100.00169908919115
100.00204128888977
100.00359038182627
100.00810723650102
100.0204456238115
100.05295312753805
100.13555337363539
100.3371818849428
100.80764970608386
101.85098095688797
104.03597486810071
108.3276874846146
116.17886720966897
129.47025923586676
150.18985340774975
179.8627166023811
186.09257510302322
154.78556257461545
132.5696807042346
118.09249501426046
109.41456103647769
104.60776702517862
102.13185851064344
100.93763819996431
100.39451010208788
100.16011591786737
100.06359302645602
100.02549325125202
100.01103131391137
100.00575370373326
100.00394369696033
100.00349553450461
100.00384984754521
100.00540727278423
100.00993150212159
100.02227757304868
100.05479332596224
100.13740192221663
100.33903831433703
100.80951248912588
101.8528489860704
104.0378479487289
108.32956792534026
116.1807819957055
129.4722348174908
150.19208199465757
179.86570120169736
186.09259511448195
154.78578907469657
132.57009815694863
118.09319110022
109.41566110850272
104.60938186920455
102.13408131560875
100.94050739125976
100.39800552824508
100.1641553028389
100.06806071036496
100.03026655100899
100.01600262330983
100.01084200196053
100.00909535273847
100.00867902787942
100.00904864517629
100.01061366441135
100.01514234707211
100.02749174102014
100.06001041580737
100.14262166997426
100.34426036194645
100.81473750812495
101.85807763147841
104.04308447708489
108.33482127934344
116.18610579260655
129.47778263660598
150.1983251040204
179.8740365228853
186.09312348358574
154.786734865812
132.5716534907445
118.09575672398091
109.41951573074725
104.6148466188052
102.14131301482962
100.94949974680108
100.40857897000431
100.17600592677896
100.08084331800421
100.04366392237031
100.02976842619111
100.02480888806699
100.02316263331707
100.022792456614
100.02318185584518
100.02475503975216
100.02928721776054
100.04163839174724
100.07415822975332
100.15677045935688
100.3584099926313
100.82888875955439
101.8722338970063
104.0572576412654
108.34906108938091
116.2005378207133
129.49285987447158
150.21534569905168
179.89667807346152
186.0950147758519
154.79007840165207
132.57721688136004
118.10445955277342
109.43221838426554
104.63216051282348
102.16339341208246
100.97600632100404
100.43876271544423
100.2089372090643
100.11562590959937
100.07957504130682
100.06630415298368
100.06165949772017
100.06015845960219
100.05984988709162
100.0602635130371
100.06184565652742
100.06638106477523
100.07873348221557
100.11125397344631
100.19386689798955
100.39550845691068
100.86599291614469
101.90935649828747
104.09443739162175
108.38643341328098
116.2385145839645
129.5326648206356
150.2604560538599
179.9563911150014
186.10162396399372
154.8014172672823
132.5957027245159
118.13240180779756
109.47160450057939
104.68385378899316
102.22691998038556
101.04969167402643
100.52024773988883
100.29580219296882
100.20583514439691
100.17166573905848
100.15935562833364
100.15515813188581
100.15384773846989
100.15361403226085
100.15405496951195
100.15564646792868
100.16018495210797
100.17253848450774
100.2050597913575
100.28767441452996
100.48932138615214
100.95982367358357
102.00324502351062
104.18851483554745
108.48108460262641
116.33491424307623
129.63412440334577
150.37590537962524
180.10843668229603
186.1235518661488
154.8382727237214
132.65360837850048
118.21693528027188
109.58618201770327
104.82852605627534
102.39837456965523
101.24234520524483
100.72790647445555
100.51300162030533
100.42850337972108
100.39716937721334
100.38619406490365
100.38257017682238
100.381486253182
100.3813352109677
100.38180421367761
100.38340472973628
100.38794610308021
100.40030096317182
100.43282425554189
100.51544486016526
100.71711076136967
101.1876731949754
102.23128117545109
104.41712549702396
108.71140567017993
116.57015283643861
129.8829224736504
150.66021578283275
180.48040944516538
186.19171577339714
154.94993586350336
132.82323114392972
118.45543698375847
109.89689841541441
105.20610411033252
102.83074453912268
101.7146561806126
101.22627134636771
101.02662972471208
100.9501872532134
100.92269820050277
100.9133916161294
100.9104308176348
100.90958970275501
100.90952138774036
100.91001689450387
100.91162550887695
100.91616975361022
100.92852722497966
100.96105729646118
101.04369891174497
101.24543013639914
101.71619219917038
102.7603997566946
104.94798656465902
109.24720532848286
117.11940736090584
130.4672150612001
151.3308965670807
181.35073257972772
186.39068111445624
155.2654435853028
133.28515317276867
119.079166808991
110.67744102817578
106.12026782508384
103.845603600745
102.79713856391257
102.34940283449798
102.17167107610409
102.10585936884594
102.08304057098826
102.07560549622316
102.07333454589427
102.07272902978181
102.07273571483628
102.07325400140914
102.07486984966143
102.07941825063845
102.09178379792758
102.1243377191875
102.20705231728672
102.40900319488892
102.8804109525021
103.92646805262075
106.11919030727556
110.43216894548165
118.33973173705766
131.77398989773138
152.8369214638724
183.2850942489712
186.92857489200003
156.08895311884893
134.44366149291668
120.57972936652047
112.48258696574669
108.16371570934022
106.05451396846227
105.10858654474382
104.71752391070602
104.5678380360684
104.51453373315108
104.49678172697521
104.49122795454184
104.4896020443215
104.4892031380304
104.48927255138058
104.48980930839069
104.4914325875554
104.49599068784254
104.50838374681102
104.5410205321522
104.62398154498719
104.82664815268795
105.30007724691401
106.35165647407196
108.55893036204768
112.90867299012153
120.90478996011697
134.5409103841631
156.03537238607547
187.3396365221091
188.26513204047285
158.05790832831633
137.09865441571802
123.87728863294247
116.30417147083647
112.36302634268951
110.49665383031059
109.68905775959222
109.36808787003972
109.25023471673576
109.21000365703073
109.19715408489327
109.19329584820034
109.19221516458015
109.19198029429025
109.1920974615277
109.1926503497619
109.19428708103172
109.1988772472691
109.21136431129092
109.2442788277687
109.32804065950995
109.53294986973509
110.01244489181092
111.07981003938869
113.32640209513187
117.76935411674314
125.97452553879592
140.05135167031017
162.41215768946645
195.28894056968772
191.29239112906
162.33522331032276
142.61784966718173
130.45549071039335
123.6762965535544
120.26964888898621
118.71900048986755
118.07595010995394
117.8313744603375
117.74544304540858
117.71734187527157
117.70872833349283
117.70624043705398
117.7055759462031
117.7054623360719
117.70561540582794
117.7061878009921
117.70786124858013
117.71255845634667
117.72535864727084
117.75916927838344
117.84542319862771
118.05702956324302
118.55382942060021
119.66393183997275
122.01075591893803
126.67547730552897
135.34047764294863
150.30525005626325
174.25381419824063
209.7415341226763
197.50071315397068
170.72488163994132
152.95980235935153
142.3053926214753
136.6081864106396
133.86860218302698
132.6772213099885
132.2054202426168
132.03394386099995
131.97626804042207
131.9581674246014
131.95283014775225
131.95134452828447
131.95096870218552
131.95093780075882
131.95112497754718
131.95174280220465
131.95353781320642
131.95858475185966
131.97237998937732
132.00894238895123
132.10255526716386
132.33307831637893
132.87636679295775
134.0949297622791
136.68012834918594
141.83432482029903
151.43055935001604
168.02387224508928
194.58043243417754
233.90052519798712
208.9912364044468
185.5437367599014
170.27169758384287
161.61770715549525
157.2123660460311
155.19422739149138
154.35745742048744
154.04103138292257
153.93095342501374
153.89540702400205
153.88466333103221
153.88160002906645
153.88077794326466
153.88059175274168
153.88062335189753
153.8808667716934
153.88162030642889
153.88380510776634
153.8899513317061
153.9067632229398
153.95133808398725
154.06543311925617
154.34606688291984
155.0058580931705
156.4797669494146
159.58785191736646
165.73259257740656
177.046149950675
196.33047536437138
226.61924012415682
270.71293263891795
228.69802587015516
208.36057399453483
196.51803717809682
190.1399373712367
187.05098691930976
185.70258990281272
185.16866210567778
184.97527524142512
184.91061039211678
184.8904673106393
184.8845764252091
184.88294634570414
184.8825297766405
184.88246506271958
184.88257456688672
184.88297379196828
184.88415987273777
184.88754983278272
184.89697583648592
184.92243594753256
184.98897043421823
185.15646369279733
185.56065982785182
186.49044296596153
188.51650936379656
192.67086885233326
200.63211999213638
214.79895328325196
238.0710177805951
273.1592979843212
319.8026176932558
