# vtk DataFile Version 2.0
Unstructured Grid Example
ASCII
DATASET UNSTRUCTURED_GRID

POINTS 961 float
0.150000006 -0.00839745998 0
0.146666661 -0.00839745998 0
0.143333331 -0.00839745998 0
0.140000001 -0.00839745998 0
0.13666667 -0.00839745998 0
0.13333334 -0.00839745998 0
0.129999995 -0.00839745998 0
0.126666665 -0.00839745998 0
0.123333335 -0.00839745998 0
0.119999997 -0.00839745998 0
0.116666667 -0.00839745998 0
0.113333337 -0.00839745998 0
0.109999999 -0.00839745998 0
0.106666669 -0.00839745998 0
0.103333332 -0.00839745998 0
0.100000001 -0.00839745998 0
0.0966666639 -0.00839745998 0
0.0933333337 -0.00839745998 0
0.0900000036 -0.00839745998 0
0.086666666 -0.00839745998 0
0.0833333358 -0.00839745998 0
0.0799999982 -0.00839745998 0
0.0766666681 -0.00839745998 0
0.0733333305 -0.00839745998 0
0.0700000003 -0.00839745998 0
0.0666666701 -0.00839745998 0
0.0633333325 -0.00839745998 0
0.0599999987 -0.00839745998 0
0.0566666685 -0.00839745998 0
0.0533333346 -0.00839745998 0
0.0500000007 -0.00839745998 0
0.148333326 -0.0112842107 0
0.144999996 -0.0112842107 0
0.141666666 -0.0112842107 0
0.138333336 -0.0112842107 0
0.135000005 -0.0112842107 0
0.13166666 -0.0112842107 0
0.12833333 -0.0112842107 0
0.125 -0.0112842107 0
0.12166667 -0.0112842107 0
0.118333332 -0.0112842107 0
0.115000002 -0.0112842107 0
0.111666664 -0.0112842107 0
0.108333334 -0.0112842107 0
0.104999997 -0.0112842107 0
0.101666667 -0.0112842107 0
0.0983333364 -0.0112842107 0
0.0949999988 -0.0112842107 0
0.0916666687 -0.0112842107 0
0.088333331 -0.0112842107 0
0.0850000009 -0.0112842107 0
0.0816666633 -0.0112842107 0
0.0783333331 -0.0112842107 0
0.075000003 -0.0112842107 0
0.0716666654 -0.0112842107 0
0.0683333352 -0.0112842107 0
0.0649999976 -0.0112842107 0
0.0616666675 -0.0112842107 0
0.0583333336 -0.0112842107 0
0.0549999997 -0.0112842107 0
0.0516666658 -0.0112842107 0
0.0483333319 -0.0112842107 0
0.146666661 -0.0141709624 0
0.143333331 -0.0141709624 0
0.140000001 -0.0141709624 0
0.13666667 -0.0141709624 0
0.13333334 -0.0141709624 0
0.129999995 -0.0141709624 0
0.126666665 -0.0141709624 0
0.123333335 -0.0141709624 0
0.119999997 -0.0141709624 0
0.116666667 -0.0141709624 0
0.113333337 -0.0141709624 0
0.109999999 -0.0141709624 0
0.106666669 -0.0141709624 0
0.103333332 -0.0141709624 0
0.100000001 -0.0141709624 0
0.0966666639 -0.0141709624 0
0.0933333337 -0.0141709624 0
0.0900000036 -0.0141709624 0
0.086666666 -0.0141709624 0
0.0833333358 -0.0141709624 0
0.0799999982 -0.0141709624 0
0.0766666681 -0.0141709624 0
0.0733333305 -0.0141709624 0
0.0700000003 -0.0141709624 0
0.0666666701 -0.0141709624 0
0.0633333325 -0.0141709624 0
0.0599999987 -0.0141709624 0
0.0566666685 -0.0141709624 0
0.0533333346 -0.0141709624 0
0.0500000007 -0.0141709624 0
0.0466666669 -0.0141709624 0
0.144999996 -0.0170577131 0
0.141666666 -0.0170577131 0
0.138333336 -0.0170577131 0
0.135000005 -0.0170577131 0
0.13166666 -0.0170577131 0
0.12833333 -0.0170577131 0
0.125 -0.0170577131 0
0.12166667 -0.0170577131 0
0.118333332 -0.0170577131 0
0.115000002 -0.0170577131 0
0.111666664 -0.0170577131 0
0.108333334 -0.0170577131 0
0.104999997 -0.0170577131 0
0.101666667 -0.0170577131 0
0.0983333364 -0.0170577131 0
0.0949999988 -0.0170577131 0
0.0916666687 -0.0170577131 0
0.088333331 -0.0170577131 0
0.0850000009 -0.0170577131 0
0.0816666633 -0.0170577131 0
0.0783333331 -0.0170577131 0
0.075000003 -0.0170577131 0
0.0716666654 -0.0170577131 0
0.0683333352 -0.0170577131 0
0.0649999976 -0.0170577131 0
0.0616666675 -0.0170577131 0
0.0583333336 -0.0170577131 0
0.0549999997 -0.0170577131 0
0.0516666658 -0.0170577131 0
0.0483333319 -0.0170577131 0
0.0450000018 -0.0170577131 0
0.143333331 -0.0199444648 0
0.140000001 -0.0199444648 0
0.13666667 -0.0199444648 0
0.13333334 -0.0199444648 0
0.129999995 -0.0199444648 0
0.126666665 -0.0199444648 0
0.123333335 -0.0199444648 0
0.119999997 -0.0199444648 0
0.116666667 -0.0199444648 0
0.113333337 -0.0199444648 0
0.109999999 -0.0199444648 0
0.106666669 -0.0199444648 0
0.103333332 -0.0199444648 0
0.100000001 -0.0199444648 0
0.0966666639 -0.0199444648 0
0.0933333337 -0.0199444648 0
0.0900000036 -0.0199444648 0
0.086666666 -0.0199444648 0
0.0833333358 -0.0199444648 0
0.0799999982 -0.0199444648 0
0.0766666681 -0.0199444648 0
0.0733333305 -0.0199444648 0
0.0700000003 -0.0199444648 0
0.0666666701 -0.0199444648 0
0.0633333325 -0.0199444648 0
0.0599999987 -0.0199444648 0
0.0566666685 -0.0199444648 0
0.0533333346 -0.0199444648 0
0.0500000007 -0.0199444648 0
0.0466666669 -0.0199444648 0
0.043333333 -0.0199444648 0
0.141666666 -0.0228312165 0
0.138333336 -0.0228312165 0
0.135000005 -0.0228312165 0
0.13166666 -0.0228312165 0
0.12833333 -0.0228312165 0
0.125 -0.0228312165 0
0.12166667 -0.0228312165 0
0.118333332 -0.0228312165 0
0.115000002 -0.0228312165 0
0.111666664 -0.0228312165 0
0.108333334 -0.0228312165 0
0.104999997 -0.0228312165 0
0.101666667 -0.0228312165 0
0.0983333364 -0.0228312165 0
0.0949999988 -0.0228312165 0
0.0916666687 -0.0228312165 0
0.088333331 -0.0228312165 0
0.0850000009 -0.0228312165 0
0.0816666633 -0.0228312165 0
0.0783333331 -0.0228312165 0
0.075000003 -0.0228312165 0
0.0716666654 -0.0228312165 0
0.0683333352 -0.0228312165 0
0.0649999976 -0.0228312165 0
0.0616666675 -0.0228312165 0
0.0583333336 -0.0228312165 0
0.0549999997 -0.0228312165 0
0.0516666658 -0.0228312165 0
0.0483333319 -0.0228312165 0
0.0450000018 -0.0228312165 0
0.0416666679 -0.0228312165 0
0.140000001 -0.0257179681 0
0.13666667 -0.0257179681 0
0.13333334 -0.0257179681 0
0.129999995 -0.0257179681 0
0.126666665 -0.0257179681 0
0.123333335 -0.0257179681 0
0.119999997 -0.0257179681 0
0.116666667 -0.0257179681 0
0.113333337 -0.0257179681 0
0.109999999 -0.0257179681 0
0.106666669 -0.0257179681 0
0.103333332 -0.0257179681 0
0.100000001 -0.0257179681 0
0.0966666639 -0.0257179681 0
0.0933333337 -0.0257179681 0
0.0900000036 -0.0257179681 0
0.086666666 -0.0257179681 0
0.0833333358 -0.0257179681 0
0.0799999982 -0.0257179681 0
0.0766666681 -0.0257179681 0
0.0733333305 -0.0257179681 0
0.0700000003 -0.0257179681 0
0.0666666701 -0.0257179681 0
0.0633333325 -0.0257179681 0
0.0599999987 -0.0257179681 0
0.0566666685 -0.0257179681 0
0.0533333346 -0.0257179681 0
0.0500000007 -0.0257179681 0
0.0466666669 -0.0257179681 0
0.043333333 -0.0257179681 0
0.0399999991 -0.0257179681 0
0.138333336 -0.0286047198 0
0.135000005 -0.0286047198 0
0.13166666 -0.0286047198 0
0.12833333 -0.0286047198 0
0.125 -0.0286047198 0
0.12166667 -0.0286047198 0
0.118333332 -0.0286047198 0
0.115000002 -0.0286047198 0
0.111666664 -0.0286047198 0
0.108333334 -0.0286047198 0
0.104999997 -0.0286047198 0
0.101666667 -0.0286047198 0
0.0983333364 -0.0286047198 0
0.0949999988 -0.0286047198 0
0.0916666687 -0.0286047198 0
0.088333331 -0.0286047198 0
0.0850000009 -0.0286047198 0
0.0816666633 -0.0286047198 0
0.0783333331 -0.0286047198 0
0.075000003 -0.0286047198 0
0.0716666654 -0.0286047198 0
0.0683333352 -0.0286047198 0
0.0649999976 -0.0286047198 0
0.0616666675 -0.0286047198 0
0.0583333336 -0.0286047198 0
0.0549999997 -0.0286047198 0
0.0516666658 -0.0286047198 0
0.0483333319 -0.0286047198 0
0.0450000018 -0.0286047198 0
0.0416666679 -0.0286047198 0
0.038333334 -0.0286047198 0
0.13666667 -0.0314914696 0
0.13333334 -0.0314914696 0
0.129999995 -0.0314914696 0
0.126666665 -0.0314914696 0
0.123333335 -0.0314914696 0
0.119999997 -0.0314914696 0
0.116666667 -0.0314914696 0
0.113333337 -0.0314914696 0
0.109999999 -0.0314914696 0
0.106666669 -0.0314914696 0
0.103333332 -0.0314914696 0
0.100000001 -0.0314914696 0
0.0966666639 -0.0314914696 0
0.0933333337 -0.0314914696 0
0.0900000036 -0.0314914696 0
0.086666666 -0.0314914696 0
0.0833333358 -0.0314914696 0
0.0799999982 -0.0314914696 0
0.0766666681 -0.0314914696 0
0.0733333305 -0.0314914696 0
0.0700000003 -0.0314914696 0
0.0666666701 -0.0314914696 0
0.0633333325 -0.0314914696 0
0.0599999987 -0.0314914696 0
0.0566666685 -0.0314914696 0
0.0533333346 -0.0314914696 0
0.0500000007 -0.0314914696 0
0.0466666669 -0.0314914696 0
0.043333333 -0.0314914696 0
0.0399999991 -0.0314914696 0
0.0366666652 -0.0314914696 0
0.135000005 -0.0343782231 0
0.13166666 -0.0343782231 0
0.12833333 -0.0343782231 0
0.125 -0.0343782231 0
0.12166667 -0.0343782231 0
0.118333332 -0.0343782231 0
0.115000002 -0.0343782231 0
0.111666664 -0.0343782231 0
0.108333334 -0.0343782231 0
0.104999997 -0.0343782231 0
0.101666667 -0.0343782231 0
0.0983333364 -0.0343782231 0
0.0949999988 -0.0343782231 0
0.0916666687 -0.0343782231 0
0.088333331 -0.0343782231 0
0.0850000009 -0.0343782231 0
0.0816666633 -0.0343782231 0
0.0783333331 -0.0343782231 0
0.075000003 -0.0343782231 0
0.0716666654 -0.0343782231 0
0.0683333352 -0.0343782231 0
0.0649999976 -0.0343782231 0
0.0616666675 -0.0343782231 0
0.0583333336 -0.0343782231 0
0.0549999997 -0.0343782231 0
0.0516666658 -0.0343782231 0
0.0483333319 -0.0343782231 0
0.0450000018 -0.0343782231 0
0.0416666679 -0.0343782231 0
0.038333334 -0.0343782231 0
0.0350000001 -0.0343782231 0
0.13333334 -0.0372649729 0
0.129999995 -0.0372649729 0
0.126666665 -0.0372649729 0
0.123333335 -0.0372649729 0
0.119999997 -0.0372649729 0
0.116666667 -0.0372649729 0
0.113333337 -0.0372649729 0
0.109999999 -0.0372649729 0
0.106666669 -0.0372649729 0
0.103333332 -0.0372649729 0
0.100000001 -0.0372649729 0
0.0966666639 -0.0372649729 0
0.0933333337 -0.0372649729 0
0.0900000036 -0.0372649729 0
0.086666666 -0.0372649729 0
0.0833333358 -0.0372649729 0
0.0799999982 -0.0372649729 0
0.0766666681 -0.0372649729 0
0.0733333305 -0.0372649729 0
0.0700000003 -0.0372649729 0
0.0666666701 -0.0372649729 0
0.0633333325 -0.0372649729 0
0.0599999987 -0.0372649729 0
0.0566666685 -0.0372649729 0
0.0533333346 -0.0372649729 0
0.0500000007 -0.0372649729 0
0.0466666669 -0.0372649729 0
0.043333333 -0.0372649729 0
0.0399999991 -0.0372649729 0
0.0366666652 -0.0372649729 0
0.0333333351 -0.0372649729 0
0.13166666 -0.0401517227 0
0.12833333 -0.0401517227 0
0.125 -0.0401517227 0
0.12166667 -0.0401517227 0
0.118333332 -0.0401517227 0
0.115000002 -0.0401517227 0
0.111666664 -0.0401517227 0
[...]
POINT_DATA 961
SCALARS Temp float 1
LOOKUP_TABLE default
325.23527454310505
275.35708044847644
238.35675120518215
213.89866668334793
199.09898687995357
190.84952876257677
186.58405124730592
184.52276983383058
183.58474510748118
183.17990821707957
183.01314238913784
182.9472094754633
182.92206870608032
182.91278555572555
182.909455737649
182.90829027024864
182.90789623098325
182.90777883717598
182.90780697601116
182.90808067697563
182.90920080709418
182.91339476297807
182.92822184214
182.97752580925635
183.13032778224914
183.5675273714076
184.71093137633608
187.41855536313898
193.17972573078788
204.14970199928013
223.21455659084188
275.35712471610117
229.07922223747732
197.0988486702193
176.73790981312825
164.81964821144427
158.36950401339138
155.1198084612277
153.58432446331133
152.89895542249516
152.6080231998872
152.48987401337152
152.44373176098645
152.4263250698815
152.41995801620567
152.41769148725533
152.41690792567152
152.41664976136903
152.41659751902222
152.41671836631676
152.41730459403567
152.41956190790808
152.42771653973276
152.45550922556842
152.54418404240408
152.80677032987188
153.5216745733514
155.29449457598855
159.26514484200717
167.24536318651775
181.59763127072895
204.14972052292094
238.35671804329797
197.09883678311627
169.09618281857792
151.56121762678836
141.4137635835852
135.9630582569605
133.22895789727332
131.93970743618135
131.36442634244375
131.12002386871944
131.0206195321104
130.98172327357875
130.96701918614696
130.96162948226288
130.95970837210436
130.9590434147046
130.95883285005698
130.95883124358943
130.95910031947722
130.960222747675
130.96436767662217
130.97878318650672
131.02591136793367
131.16964311320766
131.57508308508181
132.62368121482524
135.08971917333386
140.32509935045513
150.30124036229373
167.245353608854
193.17973252989512
213.89862957555525
176.73789588497726
151.56122316810362
135.78056573691595
126.61896368910676
121.6745407570609
119.18070329913937
117.99800347576561
117.4673221108036
117.24069508005557
117.14808330535931
117.11169279664284
117.09788483572709
117.0928064457763
117.09099289089453
117.0903677054264
117.09018569780577
117.09024971680941
117.090756214217
117.09271910276944
117.0996773124335
117.12289659359901
117.19549771110003
117.40667410441353
117.97366375165775
119.36826780929951
122.48922966217881
128.80709556701734
140.3251108388201
159.26515668590815
187.41854742241233
199.09896155799083
164.81964041176505
141.41376251732848
126.61899774966598
117.95962383023326
113.25162344923858
110.86166862367965
109.72199387608934
109.20826424614754
108.98803805914339
108.89775820149737
108.8621915847126
108.84866729775806
108.84368532804426
108.84190389948367
108.8412951148798
108.84114288617788
108.84130690096254
108.84216635671879
108.84531835667623
108.85603050675114
108.89024084049689
108.99241024366899
109.27587874017811
110.00177196787617
111.7071107694638
115.3634923112419
122.48922496430983
135.089716104668
155.29449184650127
184.7109379448488
190.8495067237704
158.3695238042387
135.9630837114772
121.6745196176801
113.25161602145083
108.64648016881478
106.29864218945625
105.17534581109003
104.6677168536883
104.44968071864517
104.36016454050589
104.32485715047405
104.3114188231367
104.30646568095672
104.30469615034163
104.30410109944579
104.30398846179818
104.30429332796876
104.3056287923185
104.31029203131648
104.32547017186249
104.3718421776147
104.50423771897766
104.85559016723457
105.71794860451843
107.66684138437141
111.70710964208506
119.36826873415222
132.62368754968452
153.52165650443146
183.5675189938604
186.58405231100681
155.1198215049157
133.22898844478
119.18067792938777
110.86166066993253
106.29864081122649
103.96696992077554
102.84961135082969
102.34407999372942
102.12676274083385
102.03748684950341
102.00225807314648
101.98884549747548
101.98390098976412
101.98213780429943
101.98155851073297
101.9814997887212
101.98198641907265
101.98390114894181
101.99028670652596
102.01019754121963
102.06848677809037
102.22812345751515
102.6355164490129
103.60086474284009
105.71794718327712
110.00176827110451
117.97365766802795
131.57507990139987
152.80676759187165
183.13033706786428
184.52277967518188
153.58434255756882
131.93966386020503
117.99798269496098
109.72199104413636
105.17534930502197
102.84961069472429
101.7343168860737
101.22947949023529
101.0123909049832
100.92318807742352
100.8879825097139
100.87457749698402
100.86963673982476
100.86787985183865
100.86732019377246
100.8673280618334
100.86802722888476
100.87057627580542
100.87871738800014
100.90309419205805
100.97173916779711
101.15309101676256
101.60137608762801
102.63551591475463
104.85558955447169
109.27587909682487
117.4066745912667
131.16963193722776
152.54416623177522
182.97751615478407
183.58474637712465
152.89898176126215
131.3643846763868
117.46730755906175
109.20826443098632
104.66771361953008
102.34407975122818
101.22948086997577
100.72486677571005
100.50784866432977
100.41866754555012
100.38346881743385
100.37006622029007
100.36512799883998
100.36337821788074
100.36284212883318
100.36292505155706
100.36384875824287
100.36702228386146
100.37676440936202
100.40489706742653
100.48154360737999
100.67827528063782
101.15309144492126
102.22812328919743
104.50423703862927
108.99240948767428
117.19549451046574
131.02591441896743
152.45551471755473
182.92823982036728
183.1799341194537
152.60796088106855
131.12000506375793
117.24069321185758
108.98804599831531
104.4496805494154
102.1267644987037
101.01239086432545
100.50784855544819
100.2908512788422
100.2016767740935
100.16648008366468
100.15307872098657
100.14814308490823
100.14640134647436
100.14589090031264
100.14605055495349
100.14718829489658
100.15091399326201
100.16196366203883
100.19291873918661
100.27508485486428
100.48154338607321
100.97173900992014
102.06848678621681
104.37184209669375
108.89024107811822
117.1228853112722
130.97877110958333
152.4277010663256
182.9133853993841
183.01319713405596
152.48982800319052
131.02061201474885
117.14808786048756
108.89775449116485
104.36016566178603
102.03748941275612
100.92318810705441
100.41866779952403
100.20167676504948
100.11250422759997
100.07730829794487
100.06390799385197
100.05897513744644
100.057241972322
100.05675699581528
100.05698771740194
100.0583095525164
100.06247438264302
100.074482320515
100.10733900715795
100.19291885869849
100.40489714106347
100.90309394966972
102.01019705454559
104.3254695141571
108.85602849989475
117.09967629443531
130.96437159217504
152.4195700383637
182.90918788177632
182.94715595727766
152.44370596004677
130.98172480106268
117.11170351770762
108.8621883263338
104.3248589070343
102.00225706957487
100.88798269361328
100.38346837840454
100.16648009203625
100.07730836286761
100.04211305785192
100.02871393351002
100.02378406753809
100.02205932421995
100.0215974287386
100.02188780955433
100.02335260607947
100.02783213153872
100.04047231289339
100.07448239756724
100.16196373613076
100.37676431509513
100.87871782182695
101.99028762043184
104.31029456896094
108.84531591045709
117.09271530165418
130.96022352427133
152.41730557148335
182.90809428508967
182.9220484132893
152.4263259351792
130.96703628988092
117.09787867214288
108.84866889791965
104.31142395568979
101.98884517851468
100.87457835064083
100.37006596871313
100.15307881456758
100.06390795433148
100.028713914383
100.0153165072498
100.01038999195262
100.00867309837119
100.00823044587686
100.00856637787805
100.0101316967688
100.01481503700036
100.02783209196525
100.06247436594181
100.15091409863867
100.36702194707374
100.87057612097483
101.98390076403324
104.30562781887335
108.84216545069276
117.09075508836779
130.95910541779202
152.41669684314422
182.90780977112985
182.91276922207234
152.41996039673074
130.9616500159104
117.0927994099601
108.8436870595348
104.30646303349367
101.98390099922682
100.86963613961136
100.36512785202858
100.14814324057397
100.05897508057117
100.02378406061128
100.01038998850004
100.00546790122698
100.00375849280273
100.00333102409604
100.00369890808786
100.00532854446745
100.01013169177038
100.02335261597308
100.05830953987378
100.14718835759298
100.36384872818907
100.86802768328468
101.98198751396423
104.30429208766225
108.8413047432063
117.0902464622674
130.95883152585458
152.41660106543156
182.90777863933667
182.90945688224105
152.41771003323973
130.95969802112367
117.0909927534564
108.84191165851207
104.30469519809517
101.98213956867075
100.86787962776035
100.36337819316567
100.1464013148601
100.05724196562524
100.02205933720002
100.00867309492968
100.00375849505927
100.00205749220008
100.00164226869772
100.00203137526826
100.00369890576576
100.00856637008224
100.02188779426064
100.05698772198947
100.14605051008004
100.36292474860784
100.86732790236206
101.98149926775208
104.3039880628174
108.84114242486572
117.09018538675808
130.9588208669249
152.41664644943833
182.90788912455338
182.90828979255528
152.41692740916835
130.95903188495797
117.09036875296411
108.84128955902337
104.30410071634171
101.98155705220644
100.86732020768953
100.3628422837729
100.14589085025776
100.05675700036304
100.02159739722056
100.00823044590126
100.0033310202653
100.0016422686616
100.00123871332534
100.00164226946664
100.00333102148149
100.00823045486031
100.02159741127355
100.05675697852352
100.14589097653347
100.36284211870996
100.86732071617665
101.98155788589492
104.30409997005118
108.84129402025586
117.09036467504433
130.9590477814815
152.41689963446152
182.90829346452037
182.90791404674675
152.4166264300495
130.95883718929917
117.09019777728157
108.84114076398859
104.30399158587129
101.98149928541719
100.86732844369182
100.36292474580108
100.14605062487348
100.0569877844085
100.02188779110472
100.00856638771073
100.0036989064552
100.00203137601213
100.00164227012485
100.002057493581
100.00375849034245
100.00867309775256
100.02205931368353
100.05724191861319
100.14640130854205
100.36337793917852
100.86787958783101
101.98213775392527
104.30469604535169
108.841904289598
117.0909816840401
130.9597061732299
152.4176772449721
182.90944771393006
182.90780900772918
152.41658016187392
130.95883921834883
117.09023869754965
108.84130607424882
104.3042902143906
101.98198633359354
100.86802800800697
100.36384841684523
100.14718840785879
100.0583095035382
100.02335259284916
100.01013168851085
100.00532854227025
100.0036989095528
100.00333102482213
100.00375849328248
100.00546790447736
100.01038999342137
100.02378405062306
100.0589751280409
100.1481431605168
100.36512805688875
100.86963647412915
101.98390052076257
104.30646497859911
108.84368351828174
117.09280601703072
130.96162271189752
152.41994987194977
182.91278628054377
182.90777598349163
152.41670946390698
130.9591147012659
117.09074509293825
108.84216772717788
104.30562559198468
101.98390084186602
100.8705756166976
100.3670220129817
100.15091416671818
100.06247432314223
100.02783212360474
100.01481503243218
100.01013169430817
100.00856637747493
100.00823044548618
100.00867309715909
100.01038999504974
100.01531650209483
100.02871390814519
100.063907981948
100.15307878449903
100.37006613119384
100.87457788493008
101.98884637834823
104.31142133452738
108.84866464111347
117.0978863194874
130.96701873394363
152.42632447607255
182.92207762032936
182.9080745547175
152.4173163246685
130.9602091336713
117.09271667846616
108.84531184332862
104.31029205411512
101.9902882773845
100.87871713468485
100.37676444315524
100.16196365376234
100.07448234283122
100.04047230469781
100.02783212495581
100.02335261044654
100.02188781321333
100.02159742921442
100.02205932511696
100.02378406911188
100.02871392849293
100.0421130750337
100.07730832601138
100.16648016639533
100.38346847922553
100.88798234572214
102.00225765740234
104.32485618535861
108.86219067933882
117.11168427532833
130.98171638393447
152.44372202091355
182.94720925214912
182.90919623708334
152.41957834176782
130.9643530969428
117.09967919479033
108.85602407656701
104.3254696877085
102.01019599463609
100.90309412974374
100.40489731490494
100.19291876098218
100.10733908958255
100.07448231611106
100.06247437754286
100.05830955011086
100.05698771334974
100.05675699658089
100.05724197859774
100.0589751331335
100.06390799365307
100.0773083080359
100.11250420892257
100.20167681684053
100.41866753649327
100.9231885366766
102.03748781416213
104.36016304649964
108.89775869265092
117.1480789540608
131.02061894489484
152.48987362990243
183.01313905601884
182.91338875605075
152.42767428139547
130.97877228292867
117.12287798506918
108.89023651036065
104.3718435088726
102.06848541744175
100.97173932902925
100.48154321725585
100.27508473490182
100.19291871856488
100.16196364061143
100.15091400537217
100.1471883182114
100.14605055828947
100.14589089969097
100.1464013463237
100.14814307944789
100.15307872785154
100.1664800689875
100.20167680651639
100.29085129899083
100.50784836717385
101.012391076174
102.12676315317282
104.44968233824106
108.9880368878239
117.2406940760581
131.12003085398896
152.6080332051811
183.17992518267704
182.92826552539833
152.4555042236427
131.02593087355086
117.19549438470618
108.99241430293449
104.504237369515
102.22812507450686
101.15309268241208
100.67827565650003
100.48154429571352
100.40489753952536
100.37676483888374
100.36702270426704
100.36384916442634
100.36292548579054
100.36284258676801
100.36337863274923
100.36512844088519
100.37006665484571
100.38346922030242
100.41866796678451
100.50784889324594
100.72486719707864
101.2294801464419
102.34407830832417
104.66771547076611
109.20825933015136
117.46731292720646
131.36441811315456
152.898929719212
183.5847281378821
182.97750892341395
152.54418855183522
131.1696328656866
117.40667467297473
109.27588642531725
104.85558977297184
102.63551841654123
101.60137710626013
101.15309189752833
100.9717401483971
100.90309511797147
100.87871841306115
100.87057738004788
100.86802823622703
100.86732904537493
100.8673211742384
100.86788082470166
100.86963773301993
100.87457848304587
100.88798353859524
100.92318902354687
101.01239175407652
101.22948044403545
101.7343169745704
102.84961223973596
105.17534495239126
109.72199193010228
117.99799794936787
131.9397052723319
153.58431841654533
184.52276646448897
183.13032070318152
152.806785548317
131.57507537150207
117.97366342591872
110.00176742682969
105.71795001333174
103.60086703992825
102.63551720152364
102.22812499548394
102.06848801290487
102.01019861490295
101.99028772842934
101.98390209802524
101.98198749705128
101.98150096579853
101.98155951772681
101.98213893646019
101.98390208351887
101.98884653706939
102.00225917629544
102.03748788254356
102.1267638874506
102.34408069745326
102.84961219476665
103.9669728760797
106.29864113939752
110.86166820262574
119.18070355874099
133.22895460891533
155.1198044562075
186.58405441386296
183.56752616002498
153.52164175888905
132.62367713877242
119.36827412296451
111.7071057120871
107.66684293683082
105.7179482361118
104.85558983014685
104.50423764345737
104.37184197221816
104.32547031707394
104.31029251295847
104.30562893309602
104.30429337101167
104.30398847537177
104.30410112918483
104.30469622936941
104.30646577659753
104.31141905899983
104.32485715777283
104.36016465276464
104.44968097773561
104.66771678310816
105.17534680456542
106.29864092339695
108.64648265036578
113.25162787859644
121.67454764592065
135.96306698774052
158.36950820691607
190.84950995005104
184.7109375195221
155.29446816970753
135.0897126155122
122.48921403738171
115.36348947462432
111.7071081727593
110.00176700503116
109.27587550137281
108.99240680721874
108.89023695208255
108.8560264280615
108.84531398350701
108.84216241851912
108.84130326169593
108.84113875636145
108.84129137982441
108.84190002607035
108.84368131027934
108.84866342582204
108.8621877088703
108.89775434178189
108.98803389714445
109.20826082487692
109.72199142663284
110.86166496062381
113.25162437026643
117.95963507678998
126.61896998410465
141.41374188879678
164.81962825216843
199.09896903704933
187.41855630017164
159.26516634306995
140.3251390035956
128.80710707900806
122.4892475566809
119.36828175106442
117.97367722427366
117.40668767556903
117.19551081113325
117.12291059168683
117.0996921596771
117.09273310545062
117.09076992467982
117.09026330534417
117.09019945817805
117.09038151993612
117.09100675797067
117.09282065122251
117.09789843788705
117.11170671333677
117.14809732466391
117.2407086684153
117.46733596805285
117.99801598619945
119.1807172073094
121.67455821256878
126.61898611653731
135.78055169543197
151.5611984999206
176.73787079542683
213.89863442389958
193.17974094825965
167.24538351790648
150.3012543604557
140.32512121053904
135.08973965128504
132.62369709265667
131.57510128820832
131.1696612807075
131.0259287084716
130.97880008536205
130.96438371805075
130.96023973025518
130.95911792317312
130.95884795928677
130.95885038926644
130.95906061805692
130.9597252894487
130.96164657564066
130.96703638419197
130.9817403282173
131.02063608945915
131.12004169184536
131.36444395267702
131.9397233639478
133.22897560806868
135.96307848896754
141.41375398036416
151.56120449897867
169.0961616969024
197.09881497513123
238.3567233628849
204.14972199252105
181.59765428675118
167.2453666598974
159.2651572255555
155.2945024750639
153.5216820931237
152.80677803427596
152.54419104267078
152.45551810519873
152.42772653824375
152.4195703895923
152.41731263311354
152.41672616126547
152.4166059257852
152.41665806318272
152.41691633166633
152.41770040192796
152.41996587331874
152.42633358138707
152.4437403063057
152.48988215818588
152.6080312747906
152.89896315525698
153.58433355127536
155.11981920121494
158.3695166407191
164.81963311859363
176.73788336376467
197.09881168778588
229.0791847968731
275.3570346444032
223.21457263004638
204.1496972228603
193.17973044483952
187.41855929750258
184.7109294209546
183.56752859176362
183.1303285212792
182.97752723026267
182.92822266375882
182.91339284218597
182.90920072515004
182.90808110708355
182.90780711502325
182.90777963505477
182.90789656802795
182.90829061456245
182.90945524887752
182.91278625565386
182.9220687650436
182.94720898965
183.01314334907963
183.17990905497552
183.58474537098687
184.52277051349643
186.58405077121648
190.8495063822251
199.09896345569786
213.8986305984269
238.35670342715474
275.35701711447155
325.23488005152825
