# vtk DataFile Version 2.0
Unstructured Grid Example
ASCII
DATASET UNSTRUCTURED_GRID

POINTS 961 float
0.150000006 -0.00839745998 0
0.146666661 -0.00839745998 0
0.143333331 -0.00839745998 0
0.140000001 -0.00839745998 0
0.13666667 -0.00839745998 0
0.13333334 -0.00839745998 0
0.129999995 -0.00839745998 0
0.126666665 -0.00839745998 0
0.123333335 -0.00839745998 0
0.119999997 -0.00839745998 0
0.116666667 -0.00839745998 0
0.113333337 -0.00839745998 0
0.109999999 -0.00839745998 0
0.106666669 -0.00839745998 0
0.103333332 -0.00839745998 0
0.100000001 -0.00839745998 0
0.0966666639 -0.00839745998 0
0.0933333337 -0.00839745998 0
0.0900000036 -0.00839745998 0
0.086666666 -0.00839745998 0
0.0833333358 -0.00839745998 0
0.0799999982 -0.00839745998 0
0.0766666681 -0.00839745998 0
0.0733333305 -0.00839745998 0
0.0700000003 -0.00839745998 0
0.0666666701 -0.00839745998 0
0.0633333325 -0.00839745998 0
0.0599999987 -0.00839745998 0
0.0566666685 -0.00839745998 0
0.0533333346 -0.00839745998 0
0.0500000007 -0.00839745998 0
0.148333326 -0.0112842107 0
0.144999996 -0.0112842107 0
0.141666666 -0.0112842107 0
0.138333336 -0.0112842107 0
0.135000005 -0.0112842107 0
0.13166666 -0.0112842107 0
0.12833333 -0.0112842107 0
0.125 -0.0112842107 0
0.12166667 -0.0112842107 0
0.118333332 -0.0112842107 0
0.115000002 -0.0112842107 0
0.111666664 -0.0112842107 0
0.108333334 -0.0112842107 0
0.104999997 -0.0112842107 0
0.101666667 -0.0112842107 0
0.0983333364 -0.0112842107 0
0.0949999988 -0.0112842107 0
0.0916666687 -0.0112842107 0
0.088333331 -0.0112842107 0
0.0850000009 -0.0112842107 0
0.0816666633 -0.0112842107 0
0.0783333331 -0.0112842107 0
0.075000003 -0.0112842107 0
0.0716666654 -0.0112842107 0
0.0683333352 -0.0112842107 0
0.0649999976 -0.0112842107 0
0.0616666675 -0.0112842107 0
0.0583333336 -0.0112842107 0
0.0549999997 -0.0112842107 0
0.0516666658 -0.0112842107 0
0.0483333319 -0.0112842107 0
0.146666661 -0.0141709624 0
0.143333331 -0.0141709624 0
0.140000001 -0.0141709624 0
0.13666667 -0.0141709624 0
0.13333334 -0.0141709624 0
0.129999995 -0.0141709624 0
0.126666665 -0.0141709624 0
0.123333335 -0.0141709624 0
0.119999997 -0.0141709624 0
0.116666667 -0.0141709624 0
0.113333337 -0.0141709624 0
0.109999999 -0.0141709624 0
0.106666669 -0.0141709624 0
0.103333332 -0.0141709624 0
0.100000001 -0.0141709624 0
0.0966666639 -0.0141709624 0
0.0933333337 -0.0141709624 0
0.0900000036 -0.0141709624 0
0.086666666 -0.0141709624 0
0.0833333358 -0.0141709624 0
0.0799999982 -0.0141709624 0
0.0766666681 -0.0141709624 0
0.0733333305 -0.0141709624 0
0.0700000003 -0.0141709624 0
0.0666666701 -0.0141709624 0
0.0633333325 -0.0141709624 0
0.0599999987 -0.0141709624 0
0.0566666685 -0.0141709624 0
0.0533333346 -0.0141709624 0
0.0500000007 -0.0141709624 0
0.0466666669 -0.0141709624 0
0.144999996 -0.0170577131 0
0.141666666 -0.0170577131 0
0.138333336 -0.0170577131 0
0.135000005 -0.0170577131 0
0.13166666 -0.0170577131 0
0.12833333 -0.0170577131 0
0.125 -0.0170577131 0
0.12166667 -0.0170577131 0
0.118333332 -0.0170577131 0
0.115000002 -0.0170577131 0
0.111666664 -0.0170577131 0
0.108333334 -0.0170577131 0
0.104999997 -0.0170577131 0
0.101666667 -0.0170577131 0
0.0983333364 -0.0170577131 0
0.0949999988 -0.0170577131 0
0.0916666687 -0.0170577131 0
0.088333331 -0.0170577131 0
0.0850000009 -0.0170577131 0
0.0816666633 -0.0170577131 0
0.0783333331 -0.0170577131 0
0.075000003 -0.0170577131 0
0.0716666654 -0.0170577131 0
0.0683333352 -0.0170577131 0
0.0649999976 -0.0170577131 0
0.0616666675 -0.0170577131 0
0.0583333336 -0.0170577131 0
0.0549999997 -0.0170577131 0
0.0516666658 -0.0170577131 0
0.0483333319 -0.0170577131 0
0.0450000018 -0.0170577131 0
0.143333331 -0.0199444648 0
0.140000001 -0.0199444648 0
0.13666667 -0.0199444648 0
0.13333334 -0.0199444648 0
0.129999995 -0.0199444648 0
0.126666665 -0.0199444648 0
0.123333335 -0.0199444648 0
0.119999997 -0.0199444648 0
0.116666667 -0.0199444648 0
0.113333337 -0.0199444648 0
0.109999999 -0.0199444648 0
0.106666669 -0.0199444648 0
0.103333332 -0.0199444648 0
0.100000001 -0.0199444648 0
0.0966666639 -0.0199444648 0
0.0933333337 -0.0199444648 0
0.0900000036 -0.0199444648 0
0.086666666 -0.0199444648 0
0.0833333358 -0.0199444648 0
0.0799999982 -0.0199444648 0
0.0766666681 -0.0199444648 0
0.0733333305 -0.0199444648 0
0.0700000003 -0.0199444648 0
0.0666666701 -0.0199444648 0
0.0633333325 -0.0199444648 0
0.0599999987 -0.0199444648 0
0.0566666685 -0.0199444648 0
0.0533333346 -0.0199444648 0
0.0500000007 -0.0199444648 0
0.0466666669 -0.0199444648 0
0.043333333 -0.0199444648 0
0.141666666 -0.0228312165 0
0.138333336 -0.0228312165 0
0.135000005 -0.0228312165 0
0.13166666 -0.0228312165 0
0.12833333 -0.0228312165 0
0.125 -0.0228312165 0
0.12166667 -0.0228312165 0
0.118333332 -0.0228312165 0
0.115000002 -0.0228312165 0
0.111666664 -0.0228312165 0
0.108333334 -0.0228312165 0
0.104999997 -0.0228312165 0
0.101666667 -0.0228312165 0
0.0983333364 -0.0228312165 0
0.0949999988 -0.0228312165 0
0.0916666687 -0.0228312165 0
0.088333331 -0.0228312165 0
0.0850000009 -0.0228312165 0
0.0816666633 -0.0228312165 0
0.0783333331 -0.0228312165 0
0.075000003 -0.0228312165 0
0.0716666654 -0.0228312165 0
0.0683333352 -0.0228312165 0
0.0649999976 -0.0228312165 0
0.0616666675 -0.0228312165 0
0.0583333336 -0.0228312165 0
0.0549999997 -0.0228312165 0
0.0516666658 -0.0228312165 0
0.0483333319 -0.0228312165 0
0.0450000018 -0.0228312165 0
0.0416666679 -0.0228312165 0
0.140000001 -0.0257179681 0
0.13666667 -0.0257179681 0
0.13333334 -0.0257179681 0
0.129999995 -0.0257179681 0
0.126666665 -0.0257179681 0
0.123333335 -0.0257179681 0
0.119999997 -0.0257179681 0
0.116666667 -0.0257179681 0
0.113333337 -0.0257179681 0
0.109999999 -0.0257179681 0
0.106666669 -0.0257179681 0
0.103333332 -0.0257179681 0
0.100000001 -0.0257179681 0
0.0966666639 -0.0257179681 0
0.0933333337 -0.0257179681 0
0.0900000036 -0.0257179681 0
0.086666666 -0.0257179681 0
0.0833333358 -0.0257179681 0
0.0799999982 -0.0257179681 0
0.0766666681 -0.0257179681 0
0.0733333305 -0.0257179681 0
0.0700000003 -0.0257179681 0
0.0666666701 -0.0257179681 0
0.0633333325 -0.0257179681 0
0.0599999987 -0.0257179681 0
0.0566666685 -0.0257179681 0
0.0533333346 -0.0257179681 0
0.0500000007 -0.0257179681 0
0.0466666669 -0.0257179681 0
0.043333333 -0.0257179681 0
0.0399999991 -0.0257179681 0
0.138333336 -0.0286047198 0
0.135000005 -0.0286047198 0
0.13166666 -0.0286047198 0
0.12833333 -0.0286047198 0
0.125 -0.0286047198 0
0.12166667 -0.0286047198 0
0.118333332 -0.0286047198 0
0.115000002 -0.0286047198 0
0.111666664 -0.0286047198 0
0.108333334 -0.0286047198 0
0.104999997 -0.0286047198 0
0.101666667 -0.0286047198 0
0.0983333364 -0.0286047198 0
0.0949999988 -0.0286047198 0
0.0916666687 -0.0286047198 0
0.088333331 -0.0286047198 0
0.0850000009 -0.0286047198 0
0.0816666633 -0.0286047198 0
0.0783333331 -0.0286047198 0
0.075000003 -0.0286047198 0
0.0716666654 -0.0286047198 0
0.0683333352 -0.0286047198 0
0.0649999976 -0.0286047198 0
0.0616666675 -0.0286047198 0
0.0583333336 -0.0286047198 0
0.0549999997 -0.0286047198 0
0.0516666658 -0.0286047198 0
0.0483333319 -0.0286047198 0
0.0450000018 -0.0286047198 0
0.0416666679 -0.0286047198 0
0.038333334 -0.0286047198 0
0.13666667 -0.0314914696 0
0.13333334 -0.0314914696 0
0.129999995 -0.0314914696 0
0.126666665 -0.0314914696 0
0.123333335 -0.0314914696 0
0.119999997 -0.0314914696 0
0.116666667 -0.0314914696 0
0.113333337 -0.0314914696 0
0.109999999 -0.0314914696 0
0.106666669 -0.0314914696 0
0.103333332 -0.0314914696 0
0.100000001 -0.0314914696 0
0.0966666639 -0.0314914696 0
0.0933333337 -0.0314914696 0
0.0900000036 -0.0314914696 0
0.086666666 -0.0314914696 0
0.0833333358 -0.0314914696 0
0.0799999982 -0.0314914696 0
0.0766666681 -0.0314914696 0
0.0733333305 -0.0314914696 0
0.0700000003 -0.0314914696 0
0.0666666701 -0.0314914696 0
0.0633333325 -0.0314914696 0
0.0599999987 -0.0314914696 0
0.0566666685 -0.0314914696 0
0.0533333346 -0.0314914696 0
0.0500000007 -0.0314914696 0
0.0466666669 -0.0314914696 0
0.043333333 -0.0314914696 0
0.0399999991 -0.0314914696 0
0.0366666652 -0.0314914696 0
0.135000005 -0.0343782231 0
0.13166666 -0.0343782231 0
0.12833333 -0.0343782231 0
0.125 -0.0343782231 0
0.12166667 -0.0343782231 0
0.118333332 -0.0343782231 0
0.115000002 -0.0343782231 0
0.111666664 -0.0343782231 0
0.108333334 -0.0343782231 0
0.104999997 -0.0343782231 0
0.101666667 -0.0343782231 0
0.0983333364 -0.0343782231 0
0.0949999988 -0.0343782231 0
0.0916666687 -0.0343782231 0
0.088333331 -0.0343782231 0
0.0850000009 -0.0343782231 0
0.0816666633 -0.0343782231 0
0.0783333331 -0.0343782231 0
0.075000003 -0.0343782231 0
0.0716666654 -0.0343782231 0
0.0683333352 -0.0343782231 0
0.0649999976 -0.0343782231 0
0.0616666675 -0.0343782231 0
0.0583333336 -0.0343782231 0
0.0549999997 -0.0343782231 0
0.0516666658 -0.0343782231 0
0.0483333319 -0.0343782231 0
0.0450000018 -0.0343782231 0
0.0416666679 -0.0343782231 0
0.038333334 -0.0343782231 0
0.0350000001 -0.0343782231 0
0.13333334 -0.0372649729 0
0.129999995 -0.0372649729 0
0.126666665 -0.0372649729 0
0.123333335 -0.0372649729 0
0.119999997 -0.0372649729 0
0.116666667 -0.0372649729 0
0.113333337 -0.0372649729 0
0.109999999 -0.0372649729 0
0.106666669 -0.0372649729 0
0.103333332 -0.0372649729 0
0.100000001 -0.0372649729 0
0.0966666639 -0.0372649729 0
0.0933333337 -0.0372649729 0
0.0900000036 -0.0372649729 0
0.086666666 -0.0372649729 0
0.0833333358 -0.0372649729 0
0.0799999982 -0.0372649729 0
0.0766666681 -0.0372649729 0
0.0733333305 -0.0372649729 0
0.0700000003 -0.0372649729 0
0.0666666701 -0.0372649729 0
0.0633333325 -0.0372649729 0
0.0599999987 -0.0372649729 0
0.0566666685 -0.0372649729 0
0.0533333346 -0.0372649729 0
0.0500000007 -0.0372649729 0
0.0466666669 -0.0372649729 0
0.043333333 -0.0372649729 0
0.0399999991 -0.0372649729 0
0.0366666652 -0.0372649729 0
0.0333333351 -0.0372649729 0
0.13166666 -0.0401517227 0
0.12833333 -0.0401517227 0
0.125 -0.0401517227 0
0.12166667 -0.0401517227 0
0.118333332 -0.0401517227 0
0.115000002 -0.0401517227 0
0.111666664 -0.0401517227 0
[...]
POINT_DATA 961
SCALARS Temp float 1
LOOKUP_TABLE default
339.2999155853634
288.8373756247691
249.84665587607898
223.0964509308823
206.21633973293837
196.35830677831308
190.99749526528066
188.26544802376324
186.9520823173051
186.35283283562896
186.09185479983987
185.9828267234031
185.93893786637523
185.92185150912954
185.915397484773
185.91302424117922
185.9121798206039
185.91191030859522
185.9119325052
185.91237162439768
185.91411793579215
185.92031710210892
185.94102791329266
186.0060171154396
186.19608925037448
186.71005409589878
187.98458458376393
190.86180527851525
196.74191155036405
207.59814550241714
226.19195346156158
291.1188822580079
243.01684829741745
208.65235534350543
185.85662173175712
171.87203436442618
163.90076047861274
159.65543287364258
157.52999380647546
156.52355941058883
156.0702157091162
155.87494296098973
155.79413203346175
155.76187177327168
155.74940355130644
155.74472291965836
155.74301812257227
155.74242369490406
155.74227967059159
155.74247265658855
155.74344864108699
155.7470248546433
155.75920816595809
155.79827091797026
155.91541942030378
156.2416709856561
157.07883213191352
159.0435816823632
163.2344948160147
171.32307296023114
185.43416781964248
207.00710029142073
253.8409210887913
210.36745478890674
179.8538962451524
159.94389285493784
147.8585304201388
141.01349735997857
137.37937399783374
135.5613209402128
134.6996949152125
134.31085429984716
134.14295932823543
134.07329196679714
134.0454062249359
134.0345999875496
134.0305364903751
134.02905443027862
134.0285556307059
134.02850966124606
134.02896994410497
134.0308553598687
134.03743065271667
134.05893131475315
134.12490479001022
134.31372570933564
134.81419106538291
136.03397307454895
138.75041225565857
144.24844010012728
154.32050868093296
170.90598020536027
195.82914047360364
228.066545351697
188.65621725173176
161.09607338955095
143.12148962581057
132.18402808637777
125.9608203804566
122.63778367839912
120.96505963739065
120.1674590081896
119.8054526247125
119.64833036184088
119.58283626029679
119.55651444597251
119.54627927509216
119.54242173410202
119.54101903579777
119.54057845139596
119.54065722446597
119.54154114161614
119.54482810814956
119.55580306493836
119.59018504394987
119.69103281579866
119.9663724984472
120.66163400059995
122.27566124908665
125.70247700900694
132.32878256607057
143.96270793585558
162.57665306526607
189.79697496535522
211.57334655457188
175.2582159235948
149.71538800086321
132.9321972539571
122.63777103146785
116.73464002308309
113.55995621899913
111.95188587474321
111.18103086319636
110.82960735239126
110.67651932516827
110.61251579379181
110.58672963064166
110.57668461076794
110.57289348890978
110.57152660612365
110.571145452056
110.57141031705731
110.57291221971619
110.57815049456165
110.59489922766915
110.64511920292904
110.7859409813466
111.1532371402623
112.0396176444557
114.00951474091083
118.02568044248817
125.51717652427851
138.30087458939542
158.26876032736382
186.86524322674313
201.76435184771512
167.56093797955938
143.26985442608466
127.16248665299081
117.20370494758542
111.45523894617466
108.34735385677122
106.76657132459951
106.00635488683753
105.65891686637316
105.50727692220184
105.44378392857583
105.41817458869988
105.40819089588382
105.4044256194523
105.4030877080284
105.4027837648438
105.40330728346706
105.40562779707548
105.41330804827263
105.43682982625077
105.50438560546672
105.68581839332072
106.13947991982877
107.19136385031457
109.44532772434405
113.89697680292352
121.98777822761184
135.5049697034385
156.25795711243055
185.5799597271762
196.3200103252371
163.42652140072738
139.8488439352996
124.0973439627373
114.30265447369966
108.62476805970734
105.54546407547346
103.97568992553344
103.21953227681176
102.87353991612537
102.72240091285752
102.65907736506989
102.63352537402847
102.62356158123013
102.61981087214714
102.6185051959094
102.61830441782689
102.6191556459898
102.62245808437645
102.63288550390494
102.66351768783244
102.74798647994675
102.96609847203152
103.49180154642808
104.67113294657254
107.12749809661167
111.86758978694283
120.32494922553273
134.25288204048192
155.4073459081831
185.06889049496382
193.48658635068404
161.33989842955262
138.13895622143602
122.5627006296178
112.8436294951864
107.19633010201782
104.1287191162537
102.56320978708104
101.80854519659151
101.46306203540551
101.31209085682676
101.24882237966166
101.22328871272082
101.21333377633793
101.20959670158507
101.20833027994044
101.20825524491408
101.20948391549857
101.21384936365018
101.22705429573223
101.26437622142802
101.36359431470174
101.61128722903261
102.19067797399263
103.45786142703449
106.04350075299831
110.95374877298698
119.6097997090749
133.74174701911812
155.07913617528288
184.88308633566479
192.0967377789023
160.345027371634
137.3300768230976
121.83497546228811
112.14894307881465
106.51428613757744
103.45128107088173
101.88736809761704
101.1332373991091
100.78792821586651
100.63701219885387
100.5737614540288
100.54823406382631
100.53828511488089
100.53456294059363
100.53334291642196
100.53340751054489
100.53503088837662
100.54043549144002
100.5561685954363
100.59914247623541
100.709898973653
100.97899597308214
101.59432235288936
102.91591603803882
105.57550581270884
110.57537390458154
119.32758168005388
133.5503313514146
154.9627779923786
184.82082874793696
191.4508083637555
159.89439064134194
136.9660072006979
121.50652171412919
111.83424939927089
106.20460792581531
103.1433446651779
101.58000739299237
100.82606508336076
100.48081329404799
100.32991560929638
100.26667064479305
100.24114642037088
100.23120322472386
100.22749758463642
100.22632749222898
100.22653337034443
100.22853082362452
100.23485332125654
100.2526622450856
100.29993818432216
100.41882574830092
100.70187941061856
101.33888241703751
102.69080264719624
105.38839335493256
110.4306650061747
119.22477414393647
133.48405985365193
154.92451286622145
184.80137400280904
191.16488611866257
159.69960839229776
136.80932052306545
121.36474023513992
111.69794289358195
106.07023824096328
103.00961480404858
101.44648129669395
100.69260286704596
100.34737011446968
100.1964784463047
100.13323573041492
100.10771407507227
100.09777690533923
100.09408871167408
100.09296774293232
100.0933038741128
100.09562299834447
100.10267975660032
100.1220299680702
100.17226618508458
100.29633442908644
100.58761817531727
101.23643614929576
102.60361443587912
105.31884005310182
110.37927007069176
119.18999315939895
133.4627237802499
154.91279603241463
184.7956837292254
191.04361359850705
159.61883143686782
136.7445537736578
121.30595481642077
111.64126552192516
106.01427210727408
102.95387126143946
101.3908139278829
100.63695584962841
100.29173091791611
100.14084181552126
100.07760082514724
100.05208194047779
100.0421512005411
100.03848007216598
100.03740346179124
100.03784904298784
100.04041955318633
100.04800947327038
100.06839787752071
100.12048210342566
100.24754483229155
100.5432293432335
101.19788796179087
102.57203344852707
105.29470287163468
110.36222747397167
119.17898095999605
133.4562704922559
154.9094012703534
184.7941448736286
190.99429409829247
159.58657346637406
136.71874833048392
121.28242567804189
111.61854872215508
105.9918092609308
102.9314855308387
101.36845320264177
100.6146027082189
100.26938146841701
100.11849488207318
100.05525697875656
100.02974206951001
100.0198185574984
100.01616336342593
100.01512388046648
100.01565366240946
100.01840332004741
100.0263456643894
100.04737045242733
100.10050434436839
100.22914254779043
100.52696894792793
101.18425679920199
102.56130570697184
105.28685110254717
110.35693550459484
119.17571903756766
133.4544510379099
154.90847162309902
184.79374952044552
190.9748914011428
159.5740979977636
136.7087888963916
121.27332695649382
111.60973788841466
105.98307932198858
102.9227958007533
101.35977298449846
100.60593220027289
100.26071764469785
100.10983769819578
100.04660680686558
100.02109936226874
100.01118536532516
100.00754549365855
100.00653566193039
100.00712542239462
100.009992114768
100.01814736557671
100.0395284247993
100.09320673874939
100.22260185097349
100.52138233564058
101.17975596537828
102.55791905880729
105.28449026597258
110.35542701240358
119.17484724581783
133.45400616284834
154.9083203017642
184.79373147317457
190.9675205398131
159.5694384263867
136.70502657291345
121.2699247254491
111.60643934103972
105.97981438463937
102.91955096346067
101.35654328446537
100.60271984000198
100.25752359712028
100.10666323889588
100.04345055708819
100.01795972699264
100.00806137742504
100.0044387452951
100.00345326642956
100.00408383632261
100.00702147948608
100.01529497272746
100.03685882334337
100.0907961010428
100.2205248461611
100.51969547493835
101.17848194717553
102.55703937519893
105.2839553133063
110.35516022038365
119.17477176392725
133.4540406437935
154.90845100272958
184.79396693203984
190.9647862169894
159.56774286966063
136.703680687981
121.26870693846625
111.6052570148472
105.97868856649112
102.91846079647947
101.35550506201909
100.60173470412457
100.25659337037439
100.10578603470564
100.04262009729634
100.01716791033643
100.00729990079653
100.00370191214427
100.00273992422916
100.00339914796274
100.0063780163065
100.01471270980191
100.03636316738555
100.09041388005033
100.2202786414276
100.51959736080971
101.17853043334385
102.55721799056563
105.28424025145635
110.3555249366576
119.17519313622978
133.45453279349695
154.9090002559785
184.79473332509076
190.96384231304742
159.56712899814434
136.70328123292353
121.26839027217092
111.60501435732459
105.97854602380205
102.91843948797468
101.35562770879831
100.60201136579366
100.25702392222873
100.10635446173863
100.04330243975971
100.01793689883236
100.00813008996182
100.00457351912952
100.00364045540636
100.00432343350185
100.0073271540578
100.0156923324914
100.03738128230427
100.09147815774972
100.22139417117349
100.5207649151703
101.1797458946478
102.55847611796975
105.2855317468776
110.35684434715661
119.17653344638869
133.45593970850086
154.91058759089884
184.79685374848106
190.96358697501827
159.5670703436509
136.70337453666392
121.26863105164425
111.60552624258075
105.9793632780716
102.91964632933608
101.3572573566346
100.60406921050779
100.2594789459539
100.10914472868276
100.04635190044849
100.02116938708645
100.01148171822031
100.00799730071509
100.00710618537535
100.00781438335981
100.01083590953567
100.01921698289786
100.04092252276676
100.09503729384613
100.22497165745848
100.52436000684061
101.18335597070721
102.5620991834486
105.289167902933
110.36050070965852
119.18025682646
133.45981209090994
154.91496657748576
184.8026760182729
190.96370430543158
159.56754440624803
136.70423907703153
121.27005144422643
111.60771574081859
105.98251239976288
102.92390161573915
101.36266982789672
100.61058934707688
100.26695772636818
100.11738023273192
100.0551323594698
100.03030853825658
100.02083751484595
100.0174737943551
100.01664547942872
100.0173851402411
100.0204229950363
100.02881400351382
100.0505271157282
100.10464864199153
100.2345892730713
100.533983300988
101.192985972547
102.57173773189074
105.2988247657074
110.37020204542324
119.19011239665146
133.47013035954348
154.9266339012469
184.81812813095408
190.96476507165016
159.56942324343083
136.70731153748105
121.27493892079943
111.61490345495692
105.99248406632317
102.93687990285963
101.37860768901348
100.62917040244362
100.28767837772922
100.1396765628365
100.07848496907495
100.05430861497645
100.04520123962646
100.04202545177279
100.04128706636907
100.04206708640851
100.04512247404114
100.0535214048782
100.07523873964918
100.12936312485814
100.25930623955931
100.55870281922334
101.21771043154214
102.59647608656168
105.32360640328136
110.39513015873733
119.21545900773216
133.49674871554402
154.95682741158137
184.8579382077332
190.96840834032847
159.57568360118026
136.7174515063152
121.29039029703199
111.63695389578893
106.0219840257357
102.97397472917484
101.4227078627476
100.67909980063106
100.3420035982629
100.19701304679565
100.13770042086028
100.114595370969
100.10604769706418
100.1031408960176
100.10252200907816
100.10335146309932
100.10642616816745
100.11483248821578
100.13655286394915
100.19067898281675
100.32062410062166
100.62002586535321
101.27904793084772
102.65785813741205
105.38512195127717
110.45705907982607
119.2785987970586
133.56330197980722
155.03259018174617
184.95727562096542
190.98024205105222
159.59544868565965
136.74871465051845
121.33649943588033
111.70059400790613
106.10418904244379
103.07388940949683
101.53783439037734
100.80601146321408
100.47718260951386
100.33745672588411
100.28119880937138
100.25971276845232
100.25195171983228
100.24939680576239
100.24892352589751
100.24980912343736
100.25290420813884
100.26131767750248
100.28304087140323
100.33716924764003
100.4671191011976
100.76653511318399
101.42560134687929
102.8045463570338
105.53221873316055
110.6053271158958
119.43017662419801
133.72378938492702
155.21595452180992
185.19622635828412
191.01660273491535
159.65481122074348
136.83949533644983
121.46600446063786
111.87298093336139
106.31910636019555
103.32662880418697
101.82076974036877
101.11068956229967
100.79603316152222
100.66469515762451
100.61295791553458
100.59369792412905
100.58694288649482
100.58480743552353
100.5844963819762
100.58544051336176
100.5885556126335
100.59697597603143
100.61870269166415
100.67283652008618
100.80280189971722
101.10226462291914
101.76147100194699
103.14082616018169
105.86967813068851
110.9460628060857
119.77967777586872
134.09573490850124
155.64246132291305
185.747809821103
191.1213924027625
159.82141352842078
137.08611611899607
121.80563422786258
112.3089197521109
106.84400373316889
103.92499332723084
102.47361432031889
101.79998733369557
101.5074032371688
101.38819355580041
101.34252343731752
101.32603925371468
101.32045227069672
101.31877134480918
101.31862514873156
101.31962554158362
101.32275911150094
101.33118667050461
101.35292042364647
101.40707164998672
101.53708826261784
101.8367019427878
102.49634399038113
103.87692801955008
106.6091299625293
111.69437017719756
120.55043704994623
134.9207974628781
156.59182628268363
186.96422604368254
191.4045492144596
160.25764517144347
137.7097308327798
122.63302924140484
113.3328340027704
108.0364381677625
105.2465698162742
103.88417994692988
103.26588388913878
103.00439229381993
102.90102597963235
102.86271132563982
102.84935740225954
102.84499980373869
102.84376724697437
102.84377385389818
102.84482392108713
102.84797451539514
102.85641271512182
102.87816683960958
102.93237543384323
103.06255856397318
103.36264646734764
104.02360327292438
105.40772628318128
108.14913020192444
113.25738382410547
122.16850188364094
136.66395619335728
158.602965573533
189.51188105813077
192.11466210475763
161.31539346977783
139.16681825512893
124.49438023817738
115.55561995413731
110.54650035572989
107.96127728234006
106.73011080788574
106.1875144353159
105.96543870521961
105.8806938559754
105.8504132628085
105.84024784538157
105.83706174953346
105.83623142810393
105.83636874816715
105.83746054770964
105.84062960053714
105.84909231706135
105.87091147511337
105.92530606316346
106.05601348123271
106.35754013521239
107.02232360512811
108.41626374983132
111.18188508502205
116.34726731906385
125.38660655248006
140.15414930375448
162.63500430397423
194.54802051372812
193.75750249009158
163.67536492896963
142.29407911861372
128.34057155244366
119.99627928503483
115.4264529273405
113.13332143408195
112.07593791638656
111.62614019593204
111.44881533931469
111.3836992349306
111.36131127534006
111.35407871130727
111.35190697170192
111.35140558374326
111.35164604546253
111.35277547516324
111.35597724871153
111.3645144550542
111.3865415091388
111.44151798790232
111.5738114827724
111.8795246047341
112.55495699284738
113.97489129404714
116.80110963377172
122.10071738171379
131.42106431775773
146.74155376093188
170.23852309125354
203.88177191884927
197.24259761032553
168.49222498912135
148.4271763153318
135.60788780506562
128.13393953748292
124.16910577879689
122.24915511820242
121.3969626836027
121.04852402504275
120.91655053135688
120.86996791639244
120.85455698697483
120.84976103537969
120.84838730059273
120.84813566596577
120.84845698740043
120.8496335572613
120.85292066084321
120.86169039412732
120.88436238393153
120.94108566109779
121.077962933775
121.39526957449051
122.09882685169896
123.58384924419683
126.55293030900008
132.1482242734883
142.0423479010564
158.40121232970503
183.6425905201701
219.99225498136713
203.9922949419497
177.45008107154246
159.37121411983685
148.1185499368869
141.8008107213185
138.57938917909476
137.0819666060855
136.4443538558489
136.19420590973692
136.10320261526036
136.07229946929476
136.06244647694646
136.05948985963332
136.05869015039963
136.05861689139235
136.05901672778907
136.0602961280999
136.06384283781102
136.0733222017996
136.09790502210743
136.15961714606846
136.30905704370153
136.6567080683213
137.4301968339164
139.06801857121383
142.35150497572613
148.5517636912732
159.5267990690925
177.66693858362376
205.60683257216755
245.72497063183073
215.91203245329848
192.61637259490314
177.0150450002379
167.7929200735856
162.83913101881996
160.42073748641405
159.3439741437267
158.90440740968108
158.7388202272619
158.6808545701505
158.66186967824038
158.6560159632461
158.65432343500652
158.65391284473577
158.6539799920875
158.65450734268106
158.65607467960209
158.66039930859702
158.67195680223193
158.7019300850691
158.77714000119133
158.9590350669887
159.38121623040848
160.31710913151082
162.28835174044892
166.21181194660744
173.55098980715798
186.3883607562742
207.2962703133232
238.9019659106535
283.51465342456436
235.61452662272478
215.3169596195556
203.05358086782184
196.12680738523932
192.56898859860232
190.90653601379265
190.19702925126046
189.91883089156585
189.81791413891997
189.7838032762099
189.7729888387679
189.7697563122915
189.7688680811452
189.76872121548556
189.76896073905368
189.76981302213696
189.77222984049018
189.77879964905455
189.79613808668185
189.8404951124082
189.9500972820641
190.21059529965495
190.803463102974
192.08906560002418
194.7310792183741
199.8486996379096
209.14263614383995
224.8908342319512
249.68368578210402
285.79217271859966
332.704588025787
