# vtk DataFile Version 2.0
Unstructured Grid Example
ASCII
DATASET UNSTRUCTURED_GRID

POINTS 961 float
0.150000006 -0.00839745998 0
0.146666661 -0.00839745998 0
0.143333331 -0.00839745998 0
0.140000001 -0.00839745998 0
0.13666667 -0.00839745998 0
0.13333334 -0.00839745998 0
0.129999995 -0.00839745998 0
0.126666665 -0.00839745998 0
0.123333335 -0.00839745998 0
0.119999997 -0.00839745998 0
0.116666667 -0.00839745998 0
0.113333337 -0.00839745998 0
0.109999999 -0.00839745998 0
0.106666669 -0.00839745998 0
0.103333332 -0.00839745998 0
0.100000001 -0.00839745998 0
0.0966666639 -0.00839745998 0
0.0933333337 -0.00839745998 0
0.0900000036 -0.00839745998 0
0.086666666 -0.00839745998 0
0.0833333358 -0.00839745998 0
0.0799999982 -0.00839745998 0
0.0766666681 -0.00839745998 0
0.0733333305 -0.00839745998 0
0.0700000003 -0.00839745998 0
0.0666666701 -0.00839745998 0
0.0633333325 -0.00839745998 0
0.0599999987 -0.00839745998 0
0.0566666685 -0.00839745998 0
0.0533333346 -0.00839745998 0
0.0500000007 -0.00839745998 0
0.148333326 -0.0112842107 0
0.144999996 -0.0112842107 0
0.141666666 -0.0112842107 0
0.138333336 -0.0112842107 0
0.135000005 -0.0112842107 0
0.13166666 -0.0112842107 0
0.12833333 -0.0112842107 0
0.125 -0.0112842107 0
0.12166667 -0.0112842107 0
0.118333332 -0.0112842107 0
0.115000002 -0.0112842107 0
0.111666664 -0.0112842107 0
0.108333334 -0.0112842107 0
0.104999997 -0.0112842107 0
0.101666667 -0.0112842107 0
0.0983333364 -0.0112842107 0
0.0949999988 -0.0112842107 0
0.0916666687 -0.0112842107 0
0.088333331 -0.0112842107 0
0.0850000009 -0.0112842107 0
0.0816666633 -0.0112842107 0
0.0783333331 -0.0112842107 0
0.075000003 -0.0112842107 0
0.0716666654 -0.0112842107 0
0.0683333352 -0.0112842107 0
0.0649999976 -0.0112842107 0
0.0616666675 -0.0112842107 0
0.0583333336 -0.0112842107 0
0.0549999997 -0.0112842107 0
0.0516666658 -0.0112842107 0
0.0483333319 -0.0112842107 0
0.146666661 -0.0141709624 0
0.143333331 -0.0141709624 0
0.140000001 -0.0141709624 0
0.13666667 -0.0141709624 0
0.13333334 -0.0141709624 0
0.129999995 -0.0141709624 0
0.126666665 -0.0141709624 0
0.123333335 -0.0141709624 0
0.119999997 -0.0141709624 0
0.116666667 -0.0141709624 0
0.113333337 -0.0141709624 0
0.109999999 -0.0141709624 0
0.106666669 -0.0141709624 0
0.103333332 -0.0141709624 0
0.100000001 -0.0141709624 0
0.0966666639 -0.0141709624 0
0.0933333337 -0.0141709624 0
0.0900000036 -0.0141709624 0
0.086666666 -0.0141709624 0
0.0833333358 -0.0141709624 0
0.0799999982 -0.0141709624 0
0.0766666681 -0.0141709624 0
0.0733333305 -0.0141709624 0
0.0700000003 -0.0141709624 0
0.0666666701 -0.0141709624 0
0.0633333325 -0.0141709624 0
0.0599999987 -0.0141709624 0
0.0566666685 -0.0141709624 0
0.0533333346 -0.0141709624 0
0.0500000007 -0.0141709624 0
0.0466666669 -0.0141709624 0
0.144999996 -0.0170577131 0
0.141666666 -0.0170577131 0
0.138333336 -0.0170577131 0
0.135000005 -0.0170577131 0
0.13166666 -0.0170577131 0
0.12833333 -0.0170577131 0
0.125 -0.0170577131 0
0.12166667 -0.0170577131 0
0.118333332 -0.0170577131 0
0.115000002 -0.0170577131 0
0.111666664 -0.0170577131 0
0.108333334 -0.0170577131 0
0.104999997 -0.0170577131 0
0.101666667 -0.0170577131 0
0.0983333364 -0.0170577131 0
0.0949999988 -0.0170577131 0
0.0916666687 -0.0170577131 0
0.088333331 -0.0170577131 0
0.0850000009 -0.0170577131 0
0.0816666633 -0.0170577131 0
0.0783333331 -0.0170577131 0
0.075000003 -0.0170577131 0
0.0716666654 -0.0170577131 0
0.0683333352 -0.0170577131 0
0.0649999976 -0.0170577131 0
0.0616666675 -0.0170577131 0
0.0583333336 -0.0170577131 0
0.0549999997 -0.0170577131 0
0.0516666658 -0.0170577131 0
0.0483333319 -0.0170577131 0
0.0450000018 -0.0170577131 0
0.143333331 -0.0199444648 0
0.140000001 -0.0199444648 0
0.13666667 -0.0199444648 0
0.13333334 -0.0199444648 0
0.129999995 -0.0199444648 0
0.126666665 -0.0199444648 0
0.123333335 -0.0199444648 0
0.119999997 -0.0199444648 0
0.116666667 -0.0199444648 0
0.113333337 -0.0199444648 0
0.109999999 -0.0199444648 0
0.106666669 -0.0199444648 0
0.103333332 -0.0199444648 0
0.100000001 -0.0199444648 0
0.0966666639 -0.0199444648 0
0.0933333337 -0.0199444648 0
0.0900000036 -0.0199444648 0
0.086666666 -0.0199444648 0
0.0833333358 -0.0199444648 0
0.0799999982 -0.0199444648 0
0.0766666681 -0.0199444648 0
0.0733333305 -0.0199444648 0
0.0700000003 -0.0199444648 0
0.0666666701 -0.0199444648 0
0.0633333325 -0.0199444648 0
0.0599999987 -0.0199444648 0
0.0566666685 -0.0199444648 0
0.0533333346 -0.0199444648 0
0.0500000007 -0.0199444648 0
0.0466666669 -0.0199444648 0
0.043333333 -0.0199444648 0
0.141666666 -0.0228312165 0
0.138333336 -0.0228312165 0
0.135000005 -0.0228312165 0
0.13166666 -0.0228312165 0
0.12833333 -0.0228312165 0
0.125 -0.0228312165 0
0.12166667 -0.0228312165 0
0.118333332 -0.0228312165 0
0.115000002 -0.0228312165 0
0.111666664 -0.0228312165 0
0.108333334 -0.0228312165 0
0.104999997 -0.0228312165 0
0.101666667 -0.0228312165 0
0.0983333364 -0.0228312165 0
0.0949999988 -0.0228312165 0
0.0916666687 -0.0228312165 0
0.088333331 -0.0228312165 0
0.0850000009 -0.0228312165 0
0.0816666633 -0.0228312165 0
0.0783333331 -0.0228312165 0
0.075000003 -0.0228312165 0
0.0716666654 -0.0228312165 0
0.0683333352 -0.0228312165 0
0.0649999976 -0.0228312165 0
0.0616666675 -0.0228312165 0
0.0583333336 -0.0228312165 0
0.0549999997 -0.0228312165 0
0.0516666658 -0.0228312165 0
0.0483333319 -0.0228312165 0
0.0450000018 -0.0228312165 0
0.0416666679 -0.0228312165 0
0.140000001 -0.0257179681 0
0.13666667 -0.0257179681 0
0.13333334 -0.0257179681 0
0.129999995 -0.0257179681 0
0.126666665 -0.0257179681 0
0.123333335 -0.0257179681 0
0.119999997 -0.0257179681 0
0.116666667 -0.0257179681 0
0.113333337 -0.0257179681 0
0.109999999 -0.0257179681 0
0.106666669 -0.0257179681 0
0.103333332 -0.0257179681 0
0.100000001 -0.0257179681 0
0.0966666639 -0.0257179681 0
0.0933333337 -0.0257179681 0
0.0900000036 -0.0257179681 0
0.086666666 -0.0257179681 0
0.0833333358 -0.0257179681 0
0.0799999982 -0.0257179681 0
0.0766666681 -0.0257179681 0
0.0733333305 -0.0257179681 0
0.0700000003 -0.0257179681 0
0.0666666701 -0.0257179681 0
0.0633333325 -0.0257179681 0
0.0599999987 -0.0257179681 0
0.0566666685 -0.0257179681 0
0.0533333346 -0.0257179681 0
0.0500000007 -0.0257179681 0
0.0466666669 -0.0257179681 0
0.043333333 -0.0257179681 0
0.0399999991 -0.0257179681 0
0.138333336 -0.0286047198 0
0.135000005 -0.0286047198 0
0.13166666 -0.0286047198 0
0.12833333 -0.0286047198 0
0.125 -0.0286047198 0
0.12166667 -0.0286047198 0
0.118333332 -0.0286047198 0
0.115000002 -0.0286047198 0
0.111666664 -0.0286047198 0
0.108333334 -0.0286047198 0
0.104999997 -0.0286047198 0
0.101666667 -0.0286047198 0
0.0983333364 -0.0286047198 0
0.0949999988 -0.0286047198 0
0.0916666687 -0.0286047198 0
0.088333331 -0.0286047198 0
0.0850000009 -0.0286047198 0
0.0816666633 -0.0286047198 0
0.0783333331 -0.0286047198 0
0.075000003 -0.0286047198 0
0.0716666654 -0.0286047198 0
0.0683333352 -0.0286047198 0
0.0649999976 -0.0286047198 0
0.0616666675 -0.0286047198 0
0.0583333336 -0.0286047198 0
0.0549999997 -0.0286047198 0
0.0516666658 -0.0286047198 0
0.0483333319 -0.0286047198 0
0.0450000018 -0.0286047198 0
0.0416666679 -0.0286047198 0
0.038333334 -0.0286047198 0
0.13666667 -0.0314914696 0
0.13333334 -0.0314914696 0
0.129999995 -0.0314914696 0
0.126666665 -0.0314914696 0
0.123333335 -0.0314914696 0
0.119999997 -0.0314914696 0
0.116666667 -0.0314914696 0
0.113333337 -0.0314914696 0
0.109999999 -0.0314914696 0
0.106666669 -0.0314914696 0
0.103333332 -0.0314914696 0
0.100000001 -0.0314914696 0
0.0966666639 -0.0314914696 0
0.0933333337 -0.0314914696 0
0.0900000036 -0.0314914696 0
0.086666666 -0.0314914696 0
0.0833333358 -0.0314914696 0
0.0799999982 -0.0314914696 0
0.0766666681 -0.0314914696 0
0.0733333305 -0.0314914696 0
0.0700000003 -0.0314914696 0
0.0666666701 -0.0314914696 0
0.0633333325 -0.0314914696 0
0.0599999987 -0.0314914696 0
0.0566666685 -0.0314914696 0
0.0533333346 -0.0314914696 0
0.0500000007 -0.0314914696 0
0.0466666669 -0.0314914696 0
0.043333333 -0.0314914696 0
0.0399999991 -0.0314914696 0
0.0366666652 -0.0314914696 0
0.135000005 -0.0343782231 0
0.13166666 -0.0343782231 0
0.12833333 -0.0343782231 0
0.125 -0.0343782231 0
0.12166667 -0.0343782231 0
0.118333332 -0.0343782231 0
0.115000002 -0.0343782231 0
0.111666664 -0.0343782231 0
0.108333334 -0.0343782231 0
0.104999997 -0.0343782231 0
0.101666667 -0.0343782231 0
0.0983333364 -0.0343782231 0
0.0949999988 -0.0343782231 0
0.0916666687 -0.0343782231 0
0.088333331 -0.0343782231 0
0.0850000009 -0.0343782231 0
0.0816666633 -0.0343782231 0
0.0783333331 -0.0343782231 0
0.075000003 -0.0343782231 0
0.0716666654 -0.0343782231 0
0.0683333352 -0.0343782231 0
0.0649999976 -0.0343782231 0
0.0616666675 -0.0343782231 0
0.0583333336 -0.0343782231 0
0.0549999997 -0.0343782231 0
0.0516666658 -0.0343782231 0
0.0483333319 -0.0343782231 0
0.0450000018 -0.0343782231 0
0.0416666679 -0.0343782231 0
0.038333334 -0.0343782231 0
0.0350000001 -0.0343782231 0
0.13333334 -0.0372649729 0
0.129999995 -0.0372649729 0
0.126666665 -0.0372649729 0
0.123333335 -0.0372649729 0
0.119999997 -0.0372649729 0
0.116666667 -0.0372649729 0
0.113333337 -0.0372649729 0
0.109999999 -0.0372649729 0
0.106666669 -0.0372649729 0
0.103333332 -0.0372649729 0
0.100000001 -0.0372649729 0
0.0966666639 -0.0372649729 0
0.0933333337 -0.0372649729 0
0.0900000036 -0.0372649729 0
0.086666666 -0.0372649729 0
0.0833333358 -0.0372649729 0
0.0799999982 -0.0372649729 0
0.0766666681 -0.0372649729 0
0.0733333305 -0.0372649729 0
0.0700000003 -0.0372649729 0
0.0666666701 -0.0372649729 0
0.0633333325 -0.0372649729 0
0.0599999987 -0.0372649729 0
0.0566666685 -0.0372649729 0
0.0533333346 -0.0372649729 0
0.0500000007 -0.0372649729 0
0.0466666669 -0.0372649729 0
0.043333333 -0.0372649729 0
0.0399999991 -0.0372649729 0
0.0366666652 -0.0372649729 0
0.0333333351 -0.0372649729 0
0.13166666 -0.0401517227 0
0.12833333 -0.0401517227 0
0.125 -0.0401517227 0
0.12166667 -0.0401517227 0
0.118333332 -0.0401517227 0
0.115000002 -0.0401517227 0
0.111666664 -0.0401517227 0
[...]
POINT_DATA 961
SCALARS Temp float 1
LOOKUP_TABLE default
337.9510265890273
288.06096950596896
250.13794191337388
224.16016312945752
207.73509404662593
198.1059418776359
192.84526062878686
190.15161317540495
188.8511463638852
188.25563624530886
187.99554568664388
187.88665527095577
187.84275699654617
187.82564939209092
187.81918374327853
187.81680646784747
187.81596390248848
187.81570652375376
187.8157729931564
187.816374791018
187.81866774010476
187.82660418047647
187.85246340948976
187.93155748103183
188.15696370668073
188.75091271959755
190.1870101155977
193.35169165444267
199.6761423945336
211.11801255333273
230.23531977504635
288.0610130915937
241.42272997405365
208.19467010190996
186.20410547555073
172.72335637292696
165.03874543396253
160.94489803197098
158.8950489367434
157.92466480490833
157.4878789106459
157.29995553841943
157.22230464869023
157.1913605301773
157.17942421816085
157.17495288883046
157.1733281150576
157.17276988937152
157.17265686852062
157.17293011894955
157.17416869400805
157.17859375647413
157.19335949112198
157.23973163124754
157.37596187302896
157.74766318840764
158.68262132335502
160.83553783338374
165.3471590128148
173.91605381388075
188.65302149867702
211.11803140963613
250.13790688448555
208.1946567630622
178.84606331191023
159.74944266251637
148.18713016402492
141.6543624709336
138.19480808832876
136.46877084635963
135.65311532821082
135.28613172841645
135.12816076902305
135.06281348469173
135.036733762656
135.02665743886027
135.02287855393106
135.02150719441823
135.02105790149423
135.02105945326022
135.0216454298113
135.02392764509074
135.031738745373
135.05683941355443
135.13256521487693
135.3457095034759
135.90157708156653
137.23568913151578
140.16433882699047
146.0147868335189
156.61032600446313
173.9160442615648
199.67614982243532
224.16012275475043
186.20408896714315
159.74944757971903
142.5562973366264
132.13330443701696
126.22599991316866
123.08430794950664
121.50923538838174
120.7611658536933
120.4229294177427
120.27665241403409
120.21588353259757
120.19153678920316
120.18209698510512
120.17854910320162
120.17726784544513
120.17688443421018
120.17703150353596
120.17809788466091
120.18195103862078
120.19461643021195
120.23372666735129
120.34686115090933
120.65162845424196
121.41145280890586
123.15443214210967
126.81449683342841
133.82135577544088
146.01479907162786
165.34717113028552
193.35168358490375
207.73506473399812
172.7233458394343
148.18712728953733
132.13334292004643
122.33195157781303
116.73865992284455
113.7450717766229
112.23576328342367
111.51540958133647
111.18833504390987
111.04638127796781
110.98723124535302
110.96347340517516
110.95424388138727
110.95077151186035
110.94953046600338
110.94921485191834
110.94957212267371
110.95132624315787
110.95732459030752
110.97625642186064
111.0323546599417
111.18788727180123
111.58921648335027
112.54800241507441
114.6588035081368
118.92437142939386
126.8144917668896
140.16433549971663
160.83553522031497
190.18701661149132
198.1059158983008
165.0387671959903
141.65439082969397
126.22597709715171
116.73865175397324
111.29237071498349
108.36349359708602
106.8811796389472
106.17157835085067
105.84861802200642
105.70818721777893
105.64958421918021
105.62601810863235
105.6168561176517
105.61341270847053
105.61220384243292
105.61197566450716
105.61261906199044
105.61527102051556
105.62391600856172
105.65011255478156
105.72462249595728
105.92289970515374
106.41440792080724
107.54477870766323
109.94812728000923
114.65880214120244
123.15443312647406
137.23569566586548
158.68260272112693
188.75090455221272
192.84526275339636
160.94491237112067
138.19484088384783
123.0842808245641
113.74506295435953
108.36349197684082
105.46134349147846
103.98955936429549
103.28393515186428
102.96242606857209
102.82250963844594
102.7640844833215
102.74057943891889
102.7314396024212
102.72801219378422
102.72683936295938
102.72672523275105
102.72772688156876
102.7314422349856
102.74303379629951
102.77679082407577
102.86913608568227
103.1058037116915
103.67218975326603
104.93411500442453
107.54477698694396
112.54799814811169
121.41144598853577
135.901574006665
157.74766049449613
188.1569729293413
190.1516239773053
158.89506853891
136.46872546317235
121.50921305348622
112.23576049751865
106.88118395043887
103.98955852409969
102.52170272539227
101.8174900835736
101.49647509499162
101.35672619766635
101.29835720206928
101.27487143090653
101.26574122987194
101.26232874959436
101.2611994504954
101.26122236903387
101.26263263743927
101.26748827007384
101.28203573507054
101.32285833121765
101.43067101898119
101.69815007815694
102.32007229820667
103.67218906796842
106.41440710057265
111.58921696600768
120.65162903744998
135.345697708838
157.3759437987754
187.9315478311829
188.85114895381355
157.9246925816346
135.6530727369851
120.76115049146377
111.51540994452425
106.17157437736691
103.28393475864684
101.81749194292455
101.11376448952707
100.79291210520316
100.65321634850692
100.59486489722264
100.57138574904455
100.5622619812856
100.55886589661864
100.55778718479894
100.55796105848755
100.55979485592745
100.56575711514026
100.5829783023512
100.62973761647865
100.7495904619337
101.03925376016743
101.6981506460845
103.10580354931615
105.92289895246677
111.18788639767436
120.34685775945829
135.13256844179315
157.2397373284116
187.85248156536164
188.25566406946447
157.48781624162365
135.28611224671423
120.42292738567377
111.18834386303354
105.84861773954647
102.96242824828568
101.49647497768154
100.79291193254255
100.47211113785264
100.33243233927708
100.27408649046346
100.25061064617688
100.2414930988714
100.23811507870246
100.23709026692254
100.23741580200192
100.23964819573027
100.24658217711587
100.26598675498978
100.31724216595724
100.44553728331738
100.74959014893362
101.43067082564595
102.8691360818886
105.72462238311431
111.03235489708166
120.23371435992254
135.05682682282966
157.1933437288346
187.82659494873337
187.99560106724277
157.29990873513484
135.12815248057214
120.27665709591383
111.04637668118286
105.70818842723415
102.8225128070468
101.35672624015947
100.65321671032818
100.33243232583216
100.19275889261165
100.13441523529737
100.1109420680731
100.10183104746646
100.09847185636193
100.09749974326256
100.09796415415508
100.10053734904973
100.10824455585282
100.12926211349269
100.18359587846889
100.31724235445614
100.62973771948846
101.32285800208935
102.776790196647
105.65011177974142
110.97625422768279
120.19461528484308
135.03174289109876
157.17860197182696
187.8186546748478
187.8866003281519
157.2222773949368
135.06281436225723
120.21589464203221
110.98722728847434
105.64958626813106
102.76408315035128
101.29835745303757
100.59486426957449
100.27408650244972
100.1344153424729
100.07607338140357
100.05260311111604
100.04349898981371
100.04015805861431
100.03923325035446
100.03981368947154
100.04265185657138
100.05091768818036
100.07301633749158
100.1292622377324
100.2659868683497
100.58297817089165
101.28203633702735
102.74303498872064
105.6239190583927
110.95732178254532
120.18194688961651
135.02392847012348
157.1741698079522
187.81638848943766
187.8427351583698
157.19136024219446
135.03675110302075
120.19152959111776
110.96347514773355
105.62602422482304
102.7405790706003
101.27487258326295
100.57138539990139
100.25061079091584
100.11094200366927
100.05260307904052
100.02913690840134
100.02004041747928
100.01671640924418
100.01583094964596
100.01650018968446
100.01952625172869
100.02815951994455
100.05091761996205
100.10824452854041
100.24658233844859
100.56575663514285
101.26748805612202
102.73144173457246
105.61526987421827
110.95132521201526
120.17809667521121
135.02165081751323
157.17290833700736
187.81577599799866
187.82563192374437
157.17942600516207
135.02667858388813
120.18208924314709
110.95424596533246
105.61685291058345
102.73143965176193
101.26574041792561
100.56226177420449
100.24149333602513
100.10183095729793
100.04349897925117
100.02004041132773
100.01095380621383
100.00764591943782
100.00679168515519
100.00752385630705
100.01067206085801
100.01952624288832
100.04265187369143
100.10053732973445
100.23964829284593
100.55979481304617
101.2626332541328
102.72772827848671
105.61261756195975
110.94956966425421
120.17702797553618
135.0210599178719
157.17266048318453
187.8157062318948
187.81918461956238
157.17497171266115
135.0228677192172
120.17854916209708
110.95078043834386
105.6134116451348
102.72801443919272
101.26232847156959
100.55886586634335
100.23811502976645
100.09847184709737
100.04015808064034
100.01671640317879
100.00764592377114
100.00435599264667
100.00352721814816
100.00430196799745
100.00752385199088
100.01650017569658
100.03981366358033
100.09796416093917
100.23741573252013
100.55796062275188
101.26122215082647
102.72672458625023
105.61197519084857
110.94921434341715
120.1768841254751
135.02104521199882
157.17276648181485
187.8159565542938
187.8168063377487
157.17334826038913
135.02149551910142
120.17726924461452
110.94952405586498
105.61220344963328
102.72683748989692
101.26119947815835
100.55778740606402
100.2370901948228
100.09749975171489
100.03923319654899
100.01583094992213
100.00679167792099
100.003527218104
100.00272278796606
100.00352721968379
100.00679168032758
100.01583096570222
100.03923322050258
100.09749971640214
100.23709038333261
100.55778717165101
101.26120015833305
102.7268385650074
105.61220249649412
110.94952916202855
120.17726457896181
135.02151160770322
157.1733195499656
187.81680945851681
187.8159826066321
157.17274657177953
135.0210626689189
120.1768976445383
110.94921249986497
105.61197941619808
102.726724620229
101.26122289909213
100.55796061900885
100.2374159112523
100.09796426178285
100.03981365890506
100.01650020763016
100.00752385343641
100.00430196947265
100.00352722095909
100.00435599532486
100.0076459148911
100.01671640825442
100.04015804089703
100.09847177036131
100.23811502126647
100.55886549561262
101.26232840760447
102.72801211738478
105.61341257077268
110.9507719086548
120.17853677398494
135.02287622880252
157.1749381756358
187.8191756648543
187.8157370287688
157.1726393924005
135.0210678808999
120.1770193033443
110.94957121749752
105.61261527813257
102.72772679332007
101.26263369273052
100.55979437504847
100.23964836945323
100.10053727091434
100.04265183501714
100.01952623668572
100.01067205670071
100.0075238591661
100.00679168646256
100.0076459203838
100.0109538122424
100.02004042018714
100.04349896231206
100.10183103247198
100.24149321541438
100.56226206229017
101.26574086775412
102.73143899529227
105.6168552473195
110.95424185342851
120.18209635718948
135.02665035116317
157.17941592173008
187.82565020834895
187.81574147352845
157.1729208497163
135.0216602665931
120.17808578188288
110.95132778721296
105.61526721620024
102.73144186669718
101.26748737050887
100.5657567347633
100.24658244006928
100.10824445981036
100.05091767364618
100.02815951163224
100.01952624711558
100.0165001889732
100.01583094895557
100.01671640680787
100.02004042310405
100.02913689925667
100.05260306799909
100.11094204854456
100.25061074180142
100.5713856265722
101.27487195187229
102.74058056772512
105.62602109881765
110.96347034153953
120.19153845988467
135.0367333339054
157.19136007802598
187.84276620489132
187.81636830279677
157.17418053619812
135.02391322990576
120.18194855484255
110.95731714661432
105.62391607614678
102.74303582309126
101.28203542020887
100.58297835174996
100.26598674102857
100.12926215085164
100.07301632264875
100.05091767649334
100.04265186480752
100.039813695151
100.0392332511294
100.04015806045793
100.04349899269657
100.0526031023799
100.07607341000136
100.13441528318333
100.27408661231846
100.59486441427366
101.29835697314644
102.76408394804484
105.6495830946294
110.98723018207075
120.21587431782334
135.06280641386365
157.22229500066908
187.8866552991795
187.8186631849708
157.17861050593098
135.03172379859996
120.19461852464163
110.97624923035967
105.65011203993892
102.7767888265661
101.32285824986116
100.62973796233773
100.31724220563133
100.18359601038789
100.12926210413518
100.10824454662904
100.10053734531041
100.09796414750681
100.09749974439602
100.09847186611799
100.10183104035194
100.11094206691386
100.13441525230589
100.19275886138394
100.3324324031393
100.6532163414822
101.35672683150851
102.82251085399704
105.70818542581581
111.04638194328753
120.27664778542447
135.1281602768215
157.29995532041698
187.99554239953943
187.82659880743455
157.19331678641646
135.05682839341102
120.23370638691925
111.0323497222565
105.72462405496323
102.86913435003315
101.43067124798996
100.7495899009684
100.4455371036021
100.31724213158466
100.26598672058527
100.24658219871921
100.23964822814072
100.23741580682278
100.23709026645481
100.23811507826946
100.24149309105323
100.25061065790027
100.2740864651273
100.33243238933375
100.47211117294094
100.79291167011549
101.49647531369125
102.96242662666711
105.84862000639028
111.18833371451544
120.42292840296376
135.2861390548872
157.48788922217483
188.2556532342058
187.85250773032377
157.23972704758808
135.1325857496465
120.3468577153643
111.18789203038993
105.92289938021196
103.10580588486279
101.69815233414988
101.0392542969003
100.74959146845211
100.62973828582956
100.58297891633633
100.56575771920528
100.55979543797004
100.55796168069274
100.55778783768086
100.55886649203664
100.56226261227054
100.57138636993956
100.59486546880643
100.65321694705952
100.79291242224497
101.1137651037328
101.81749104561808
103.28393303424147
106.17157682853032
111.51540410069485
120.76115610816692
135.6531069971369
157.9246385428025
188.85112917577345
187.9315405317988
157.37596663850414
135.34569870677194
120.65162930311209
111.58922541900708
106.41440750483405
103.67219230393202
102.32007365209851
101.69815126088112
101.43067234298533
101.32285958050183
101.28203712889696
101.26748974673023
101.26263399532864
101.26122369679649
101.26120077150755
101.262330065171
101.26574256866212
101.27487275476051
101.29835858384384
101.35672747121455
101.49647621684913
101.81749138259259
102.52170287184958
103.98956053779311
106.88117879280298
112.23576138294912
121.50922931545206
136.46876864547212
158.89504266732868
190.1516099541521
188.15695656405944
157.74767866036757
135.90156937458522
121.41145244873968
112.547997229444
107.54478046213566
104.93411789661695
103.67219069097216
103.1058057419716
102.86913762255273
102.7767921814006
102.74303509929558
102.73144344383327
102.72772825163601
102.72672671672035
102.72684064991827
102.72801362749155
102.7314409891212
102.7405807595911
102.76408587864965
102.82251093365083
102.96242754504661
103.28393601561224
103.98956038335031
105.46134723250972
108.36349221617516
113.74507128295332
123.08430826397623
138.19480470662768
160.94489423956705
192.84526481386735
188.7509118757231
158.68258774638727
137.2356848862179
123.1544389131901
114.65879771427973
109.94812913086554
107.5447781780769
106.41440745173313
105.92289959792441
105.7246222423814
105.65011274427337
105.62391653676063
105.61527118148545
105.61261911322309
105.61197567532078
105.61220388438808
105.61341279631581
105.61685622292048
105.62601837448051
105.64958423347795
105.70818733731794
105.84861835571638
106.171578254367
106.88118092509677
108.3634918810265
111.29237343314834
116.73866489785468
126.2260076034914
141.65437216990827
165.03875053280925
198.1059191483974
190.18701592775824
160.83551108675312
140.1643317231495
126.81447968388147
118.92436823765142
114.65880057172976
112.54799663761658
111.58921292547912
111.18788322740915
111.03235017548683
110.97625175409605
110.95731959904538
110.95132172900303
110.9495679162381
110.94921013911129
110.94952616451612
110.95076706169769
110.95423928268565
110.96346895433038
110.98722679486954
111.04637688523523
111.1883302895949
111.51540563045641
112.2357607216886
113.74506752029124
116.73866096968042
122.33196408033085
132.13331165570412
148.18710426911417
172.72333201820183
207.7350708979201
193.35169304871533
165.34718163877366
146.0148287129093
133.82136827638314
126.81451653401868
123.15444727343186
121.41146747808787
120.65164332310027
120.34687552722208
120.23374202335177
120.19463257206343
120.1819663572046
120.17811290840245
120.17704639113482
120.1768995139132
120.17728296383756
120.17856427584836
120.18211249853707
120.19155169968104
120.21589874665882
120.27666775089956
120.42294426793103
120.76118108533385
121.5092486936269
123.08432291723825
126.22601902341061
132.1333296003932
142.5562812819485
159.74942132640976
186.2040633704744
224.16012766798627
199.67615867517839
173.91607487398943
156.61034046399226
146.01480996165017
140.16436055802865
137.23570572021
135.9015965111674
135.3457284073606
135.1325833512658
135.05685714568625
135.03175564094522
135.0239454696852
135.0216638411578
135.02107701793898
135.02107625402255
135.02152522146764
135.02289631016876
135.02667535458218
135.03675178488191
135.0628313826734
135.12817814722567
135.28615030021064
135.65313389149256
136.4687873002436
138.1948265620505
141.65438427567437
148.18711706571278
159.74942655367087
178.84603967727674
208.19463292798753
250.13791046070583
211.11803312220016
188.65304469676693
173.91605717384786
165.34717191116204
160.83554561260203
158.68262877742373
157.74767097736208
157.375969005373
157.23974063121344
157.1933694710826
157.17860233298438
157.1741768563343
157.17293804131708
157.17266537565666
157.17277829036922
157.17333661479688
157.17496186855834
157.17943220674528
157.19136912736246
157.22231329673625
157.299963779645
157.48788717139274
157.92467228378007
158.8950578642589
160.94490905022087
165.03875929019983
172.72333761554285
186.2040747264202
208.19462892742143
241.42268838799006
288.0609188601301
230.23533595117433
211.11800764873325
199.67614749174342
193.35169589037176
190.1870080128557
188.75091430018364
188.15696428420455
187.93155872585868
187.85246412388918
187.8266023506005
187.81866763551184
187.81637515020577
187.81577308147394
187.81570722522926
187.81596417485486
187.8168067497084
187.81918324878447
187.8256500018654
187.8427570244461
187.88665476502456
187.99554651050383
188.25563711303678
188.8511462978723
190.15161373947714
192.84526086347452
198.10591523512554
207.73506627368238
224.16012268891302
250.13788963505735
288.06090115851754
337.95062613207045
