# vtk DataFile Version 2.0
Unstructured Grid Example
ASCII
DATASET UNSTRUCTURED_GRID

POINTS 16 float
0.100000001 0.00499999989 0
0.0666666701 0.00499999989 0
0.0333333351 0.00499999989 0
0 0.00499999989 0
0.100000001 -0.0283333343 0
0.0666666701 -0.0283333343 0
0.0333333351 -0.0283333343 0
0 -0.0283333343 0
0.100000001 -0.0616666675 0
0.0666666701 -0.0616666675 0
0.0333333351 -0.0616666675 0
0 -0.0616666675 0
0.100000001 -0.0949999988 0
0.0666666701 -0.0949999988 0
0.0333333351 -0.0949999988 0
0 -0.0949999988 0

CELLS 9 45
4 0 1 5 4
4 1 2 6 5
4 2 3 7 6
4 4 5 9 8
4 5 6 10 9
4 6 7 11 10
4 8 9 13 12
4 9 10 14 13
4 10 11 15 14

CELL_TYPES 9
9
9
9
9
9
9
9
9
9

POINT_DATA 16
SCALARS Temp float 1
LOOKUP_TABLE default
881.0576262752205
792.7169755679382
792.7169705271123
881.0576327186508
792.7169526322191
679.9076226678429
679.9076239518517
792.7169842976688
792.7169597984605
679.9076251876445
679.9076264716524
792.7170000881789
881.057624992607
792.7169692411919
792.716955576097
881.0576314360408
