# vtk DataFile Version 2.0
Unstructured Grid Example
ASCII
DATASET UNSTRUCTURED_GRID

POINTS 16 float
0.100000001 0.00499999989 0
0.0666666701 0.00499999989 0
0.0333333351 0.00499999989 0
0 0.00499999989 1
0.100000001 -0.0283333343 0
0.0666666701 -0.0283333343 0
0.0333333351 -0.0283333343 0
0 -0.0283333343 1
0.100000001 -0.0616666675 0
0.0666666701 -0.0616666675 0
0.0333333351 -0.0616666675 0
0 -0.0616666675 1
0.100000001 -0.0949999988 0
0.0666666701 -0.0949999988 0
0.0333333351 -0.0949999988 0
0 -0.0949999988 1

CELLS 9 45
4 0 1 5 4
4 1 2 6 5
4 2 3 7 6
4 4 5 9 8
4 5 6 10 9
4 6 7 11 10
4 8 9 13 12
4 9 10 14 13
4 10 11 15 14

CELL_TYPES 9
9
9
9
9
9
9
9
9
9

POINT_DATA 16
SCALARS Temp float 1
LOOKUP_TABLE default
649.3874803064264
503.4723067548699
503.4722925207008
649.3874824042947
503.47227805562983
318.6145982702042
318.61459248565563
503.4723074891482
503.47229086065335
318.6146043641656
318.61459857961654
503.4723254211486
649.3874803593397
503.4722994685845
503.4722801074383
649.3874824572111
