# vtk DataFile Version 2.0
Unstructured Grid Example
ASCII
DATASET UNSTRUCTURED_GRID

POINTS 16 float
0.100000001 0.00499999989 0
0.0666666701 0.00499999989 0
0.0333333351 0.00499999989 0
0 0.00499999989 0
0.100000001 -0.0283333343 0
0.0666666701 -0.0283333343 0
0.0333333351 -0.0283333343 0
0 -0.0283333343 0
0.100000001 -0.0616666675 0
0.0666666701 -0.0616666675 0
0.0333333351 -0.0616666675 0
0 -0.0616666675 0
0.100000001 -0.0949999988 0
0.0666666701 -0.0949999988 0
0.0333333351 -0.0949999988 0
0 -0.0949999988 0

CELLS 9 45
4 0 1 5 4
4 1 2 6 5
4 2 3 7 6
4 4 5 9 8
4 5 6 10 9
4 6 7 11 10
4 8 9 13 12
4 9 10 14 13
4 10 11 15 14

CELL_TYPES 9
9
9
9
9
9
9
9
9
9

POINT_DATA 16
SCALARS Temp float 1
LOOKUP_TABLE default
700.0684162234558
564.1710008105767
564.1709884981583
700.0684198850519
564.1709727382971
391.2558002916244
391.2557960493842
564.1710036409302
564.1709844849833
391.2558057660927
391.25580152385186
564.1710212731765
700.0684157498863
564.1709933346243
564.1709751366456
700.0684194114856
