# vtk DataFile Version 2.0
Unstructured Grid Example
ASCII
DATASET UNSTRUCTURED_GRID

POINTS 16.0 float
0.100000001 0.00499999989 0
0.0666666701 0.00499999989 0
0.0333333351 0.00499999989 0
0.0 0.00499999989 0
0.100000001 -0.0283333343 0
0.0666666701 -0.0283333343 0
0.0333333351 -0.0283333343 0
0.0 -0.0283333343 0
0.100000001 -0.0616666675 0
0.0666666701 -0.0616666675 0
0.0333333351 -0.0616666675 0
0.0 -0.0616666675 0
0.100000001 -0.0949999988 0
0.0666666701 -0.0949999988 0
0.0333333351 -0.0949999988 0
0.0 -0.0949999988 0

CELLS 9 45
4 0 1 5 4
4 1 2 6 5
4 2 3 7 6
4 4 5 9 8
4 5 6 10 9
4 6 7 11 10
4 8 9 13 12
4 9 10 14 13
4 10 11 15 14

CELL_TYPES 9
9
9
9
9
9
9
9
9
9

POINT_DATA 16.0
SCALARS Temp float 1
LOOKUP_TABLE default
774.0105015373426
656.2951523536573
655.970438774556
773.600246731516
645.4310934547875
491.3718011424968
490.33983116010165
643.1671235560883
603.8428059636383
438.04547028852386
429.4304772457598
595.431658920338
660.1218270348477
477.4720934983812
468.62713564398166
593.6243299517387
