# vtk DataFile Version 2.0
Unstructured Grid Example
ASCII
DATASET UNSTRUCTURED_GRID

POINTS 961 float
0.150000006 -0.00839745998 0
0.146666661 -0.00839745998 0
0.143333331 -0.00839745998 0
0.140000001 -0.00839745998 0
0.13666667 -0.00839745998 0
0.13333334 -0.00839745998 0
0.129999995 -0.00839745998 0
0.126666665 -0.00839745998 0
0.123333335 -0.00839745998 0
0.119999997 -0.00839745998 0
0.116666667 -0.00839745998 0
0.113333337 -0.00839745998 0
0.109999999 -0.00839745998 0
0.106666669 -0.00839745998 0
0.103333332 -0.00839745998 0
0.100000001 -0.00839745998 0
0.0966666639 -0.00839745998 0
0.0933333337 -0.00839745998 0
0.0900000036 -0.00839745998 0
0.086666666 -0.00839745998 0
0.0833333358 -0.00839745998 0
0.0799999982 -0.00839745998 0
0.0766666681 -0.00839745998 0
0.0733333305 -0.00839745998 0
0.0700000003 -0.00839745998 0
0.0666666701 -0.00839745998 0
0.0633333325 -0.00839745998 0
0.0599999987 -0.00839745998 0
0.0566666685 -0.00839745998 0
0.0533333346 -0.00839745998 0
0.0500000007 -0.00839745998 0
0.148333326 -0.0112842107 0
0.144999996 -0.0112842107 0
0.141666666 -0.0112842107 0
0.138333336 -0.0112842107 0
0.135000005 -0.0112842107 0
0.13166666 -0.0112842107 0
0.12833333 -0.0112842107 0
0.125 -0.0112842107 0
0.12166667 -0.0112842107 0
0.118333332 -0.0112842107 0
0.115000002 -0.0112842107 0
0.111666664 -0.0112842107 0
0.108333334 -0.0112842107 0
0.104999997 -0.0112842107 0
0.101666667 -0.0112842107 0
0.0983333364 -0.0112842107 0
0.0949999988 -0.0112842107 0
0.0916666687 -0.0112842107 0
0.088333331 -0.0112842107 0
0.0850000009 -0.0112842107 0
0.0816666633 -0.0112842107 0
0.0783333331 -0.0112842107 0
0.075000003 -0.0112842107 0
0.0716666654 -0.0112842107 0
0.0683333352 -0.0112842107 0
0.0649999976 -0.0112842107 0
0.0616666675 -0.0112842107 0
0.0583333336 -0.0112842107 0
0.0549999997 -0.0112842107 0
0.0516666658 -0.0112842107 0
0.0483333319 -0.0112842107 0
0.146666661 -0.0141709624 0
0.143333331 -0.0141709624 0
0.140000001 -0.0141709624 0
0.13666667 -0.0141709624 0
0.13333334 -0.0141709624 0
0.129999995 -0.0141709624 0
0.126666665 -0.0141709624 0
0.123333335 -0.0141709624 0
0.119999997 -0.0141709624 0
0.116666667 -0.0141709624 0
0.113333337 -0.0141709624 0
0.109999999 -0.0141709624 0
0.106666669 -0.0141709624 0
0.103333332 -0.0141709624 0
0.100000001 -0.0141709624 0
0.0966666639 -0.0141709624 0
0.0933333337 -0.0141709624 0
0.0900000036 -0.0141709624 0
0.086666666 -0.0141709624 0
0.0833333358 -0.0141709624 0
0.0799999982 -0.0141709624 0
0.0766666681 -0.0141709624 0
0.0733333305 -0.0141709624 0
0.0700000003 -0.0141709624 0
0.0666666701 -0.0141709624 0
0.0633333325 -0.0141709624 0
0.0599999987 -0.0141709624 0
0.0566666685 -0.0141709624 0
0.0533333346 -0.0141709624 0
0.0500000007 -0.0141709624 0
0.0466666669 -0.0141709624 0
0.144999996 -0.0170577131 0
0.141666666 -0.0170577131 0
0.138333336 -0.0170577131 0
0.135000005 -0.0170577131 0
0.13166666 -0.0170577131 0
0.12833333 -0.0170577131 0
0.125 -0.0170577131 0
0.12166667 -0.0170577131 0
0.118333332 -0.0170577131 0
0.115000002 -0.0170577131 0
0.111666664 -0.0170577131 0
0.108333334 -0.0170577131 0
0.104999997 -0.0170577131 0
0.101666667 -0.0170577131 0
0.0983333364 -0.0170577131 0
0.0949999988 -0.0170577131 0
0.0916666687 -0.0170577131 0
0.088333331 -0.0170577131 0
0.0850000009 -0.0170577131 0
0.0816666633 -0.0170577131 0
0.0783333331 -0.0170577131 0
0.075000003 -0.0170577131 0
0.0716666654 -0.0170577131 0
0.0683333352 -0.0170577131 0
0.0649999976 -0.0170577131 0
0.0616666675 -0.0170577131 0
0.0583333336 -0.0170577131 0
0.0549999997 -0.0170577131 0
0.0516666658 -0.0170577131 0
0.0483333319 -0.0170577131 0
0.0450000018 -0.0170577131 0
0.143333331 -0.0199444648 0
0.140000001 -0.0199444648 0
0.13666667 -0.0199444648 0
0.13333334 -0.0199444648 0
0.129999995 -0.0199444648 0
0.126666665 -0.0199444648 0
0.123333335 -0.0199444648 0
0.119999997 -0.0199444648 0
0.116666667 -0.0199444648 0
0.113333337 -0.0199444648 0
0.109999999 -0.0199444648 0
0.106666669 -0.0199444648 0
0.103333332 -0.0199444648 0
0.100000001 -0.0199444648 0
0.0966666639 -0.0199444648 0
0.0933333337 -0.0199444648 0
0.0900000036 -0.0199444648 0
0.086666666 -0.0199444648 0
0.0833333358 -0.0199444648 0
0.0799999982 -0.0199444648 0
0.0766666681 -0.0199444648 0
0.0733333305 -0.0199444648 0
0.0700000003 -0.0199444648 0
0.0666666701 -0.0199444648 0
0.0633333325 -0.0199444648 0
0.0599999987 -0.0199444648 0
0.0566666685 -0.0199444648 0
0.0533333346 -0.0199444648 0
0.0500000007 -0.0199444648 0
0.0466666669 -0.0199444648 0
0.043333333 -0.0199444648 0
0.141666666 -0.0228312165 0
0.138333336 -0.0228312165 0
0.135000005 -0.0228312165 0
0.13166666 -0.0228312165 0
0.12833333 -0.0228312165 0
0.125 -0.0228312165 0
0.12166667 -0.0228312165 0
0.118333332 -0.0228312165 0
0.115000002 -0.0228312165 0
0.111666664 -0.0228312165 0
0.108333334 -0.0228312165 0
0.104999997 -0.0228312165 0
0.101666667 -0.0228312165 0
0.0983333364 -0.0228312165 0
0.0949999988 -0.0228312165 0
0.0916666687 -0.0228312165 0
0.088333331 -0.0228312165 0
0.0850000009 -0.0228312165 0
0.0816666633 -0.0228312165 0
0.0783333331 -0.0228312165 0
0.075000003 -0.0228312165 0
0.0716666654 -0.0228312165 0
0.0683333352 -0.0228312165 0
0.0649999976 -0.0228312165 0
0.0616666675 -0.0228312165 0
0.0583333336 -0.0228312165 0
0.0549999997 -0.0228312165 0
0.0516666658 -0.0228312165 0
0.0483333319 -0.0228312165 0
0.0450000018 -0.0228312165 0
0.0416666679 -0.0228312165 0
0.140000001 -0.0257179681 0
0.13666667 -0.0257179681 0
0.13333334 -0.0257179681 0
0.129999995 -0.0257179681 0
0.126666665 -0.0257179681 0
0.123333335 -0.0257179681 0
0.119999997 -0.0257179681 0
0.116666667 -0.0257179681 0
0.113333337 -0.0257179681 0
0.109999999 -0.0257179681 0
0.106666669 -0.0257179681 0
0.103333332 -0.0257179681 0
0.100000001 -0.0257179681 0
0.0966666639 -0.0257179681 0
0.0933333337 -0.0257179681 0
0.0900000036 -0.0257179681 0
0.086666666 -0.0257179681 0
0.0833333358 -0.0257179681 0
0.0799999982 -0.0257179681 0
0.0766666681 -0.0257179681 0
0.0733333305 -0.0257179681 0
0.0700000003 -0.0257179681 0
0.0666666701 -0.0257179681 0
0.0633333325 -0.0257179681 0
0.0599999987 -0.0257179681 0
0.0566666685 -0.0257179681 0
0.0533333346 -0.0257179681 0
0.0500000007 -0.0257179681 0
0.0466666669 -0.0257179681 0
0.043333333 -0.0257179681 0
0.0399999991 -0.0257179681 0
0.138333336 -0.0286047198 0
0.135000005 -0.0286047198 0
0.13166666 -0.0286047198 0
0.12833333 -0.0286047198 0
0.125 -0.0286047198 0
0.12166667 -0.0286047198 0
0.118333332 -0.0286047198 0
0.115000002 -0.0286047198 0
0.111666664 -0.0286047198 0
0.108333334 -0.0286047198 0
0.104999997 -0.0286047198 0
0.101666667 -0.0286047198 0
0.0983333364 -0.0286047198 0
0.0949999988 -0.0286047198 0
0.0916666687 -0.0286047198 0
0.088333331 -0.0286047198 0
0.0850000009 -0.0286047198 0
0.0816666633 -0.0286047198 0
0.0783333331 -0.0286047198 0
0.075000003 -0.0286047198 0
0.0716666654 -0.0286047198 0
0.0683333352 -0.0286047198 0
0.0649999976 -0.0286047198 0
0.0616666675 -0.0286047198 0
0.0583333336 -0.0286047198 0
0.0549999997 -0.0286047198 0
0.0516666658 -0.0286047198 0
0.0483333319 -0.0286047198 0
0.0450000018 -0.0286047198 0
0.0416666679 -0.0286047198 0
0.038333334 -0.0286047198 0
0.13666667 -0.0314914696 0
0.13333334 -0.0314914696 0
0.129999995 -0.0314914696 0
0.126666665 -0.0314914696 0
0.123333335 -0.0314914696 0
0.119999997 -0.0314914696 0
0.116666667 -0.0314914696 0
0.113333337 -0.0314914696 0
0.109999999 -0.0314914696 0
0.106666669 -0.0314914696 0
0.103333332 -0.0314914696 0
0.100000001 -0.0314914696 0
0.0966666639 -0.0314914696 0
0.0933333337 -0.0314914696 0
0.0900000036 -0.0314914696 0
0.086666666 -0.0314914696 0
0.0833333358 -0.0314914696 0
0.0799999982 -0.0314914696 0
0.0766666681 -0.0314914696 0
0.0733333305 -0.0314914696 0
0.0700000003 -0.0314914696 0
0.0666666701 -0.0314914696 0
0.0633333325 -0.0314914696 0
0.0599999987 -0.0314914696 0
0.0566666685 -0.0314914696 0
0.0533333346 -0.0314914696 0
0.0500000007 -0.0314914696 0
0.0466666669 -0.0314914696 0
0.043333333 -0.0314914696 0
0.0399999991 -0.0314914696 0
0.0366666652 -0.0314914696 0
0.135000005 -0.0343782231 0
0.13166666 -0.0343782231 0
0.12833333 -0.0343782231 0
0.125 -0.0343782231 0
0.12166667 -0.0343782231 0
0.118333332 -0.0343782231 0
0.115000002 -0.0343782231 0
0.111666664 -0.0343782231 0
0.108333334 -0.0343782231 0
0.104999997 -0.0343782231 0
0.101666667 -0.0343782231 0
0.0983333364 -0.0343782231 0
0.0949999988 -0.0343782231 0
0.0916666687 -0.0343782231 0
0.088333331 -0.0343782231 0
0.0850000009 -0.0343782231 0
0.0816666633 -0.0343782231 0
0.0783333331 -0.0343782231 0
0.075000003 -0.0343782231 0
0.0716666654 -0.0343782231 0
0.0683333352 -0.0343782231 0
0.0649999976 -0.0343782231 0
0.0616666675 -0.0343782231 0
0.0583333336 -0.0343782231 0
0.0549999997 -0.0343782231 0
0.0516666658 -0.0343782231 0
0.0483333319 -0.0343782231 0
0.0450000018 -0.0343782231 0
0.0416666679 -0.0343782231 0
0.038333334 -0.0343782231 0
0.0350000001 -0.0343782231 0
0.13333334 -0.0372649729 0
0.129999995 -0.0372649729 0
0.126666665 -0.0372649729 0
0.123333335 -0.0372649729 0
0.119999997 -0.0372649729 0
0.116666667 -0.0372649729 0
0.113333337 -0.0372649729 0
0.109999999 -0.0372649729 0
0.106666669 -0.0372649729 0
0.103333332 -0.0372649729 0
0.100000001 -0.0372649729 0
0.0966666639 -0.0372649729 0
0.0933333337 -0.0372649729 0
0.0900000036 -0.0372649729 0
0.086666666 -0.0372649729 0
0.0833333358 -0.0372649729 0
0.0799999982 -0.0372649729 0
0.0766666681 -0.0372649729 0
0.0733333305 -0.0372649729 0
0.0700000003 -0.0372649729 0
0.0666666701 -0.0372649729 0
0.0633333325 -0.0372649729 0
0.0599999987 -0.0372649729 0
0.0566666685 -0.0372649729 0
0.0533333346 -0.0372649729 0
0.0500000007 -0.0372649729 0
0.0466666669 -0.0372649729 0
0.043333333 -0.0372649729 0
0.0399999991 -0.0372649729 0
0.0366666652 -0.0372649729 0
0.0333333351 -0.0372649729 0
0.13166666 -0.0401517227 0
0.12833333 -0.0401517227 0
0.125 -0.0401517227 0
0.12166667 -0.0401517227 0
0.118333332 -0.0401517227 0
0.115000002 -0.0401517227 0
0.111666664 -0.0401517227 0
[...]
POINT_DATA 961
SCALARS Temp float 1
LOOKUP_TABLE default
371.03991654312927
321.524548127811
281.9055785503608
252.663479935005
232.37937201092444
219.12914686649896
210.96120182133006
206.19764373580443
203.5613481710788
202.17225037016027
201.4730057948907
201.13559842740614
200.97902025363808
200.9089271181783
200.87857940549802
200.8658579279078
200.8607631023291
200.85907437147452
200.8595258720554
200.8631397867705
200.8746855024575
200.90755179428973
200.99527794321187
201.21534736536762
201.73239920398498
202.86591133955878
205.1768991568086
209.54800768513925
217.21005055482883
229.67142592015932
248.83426020468434
321.52457575371807
274.4595024318886
238.7024043075476
213.02866443094766
195.66576941420206
184.59053682502326
177.91385054335038
174.09967726795338
172.0285843770171
170.9561062519123
170.42470907989716
170.17193960869758
170.05615308066186
170.00492940079187
169.9829952895976
169.97392782954827
169.97044948645254
169.96971362704483
169.97145013786715
169.9782185431347
169.99829289963785
170.05336008282714
170.19540382804288
170.5393512093553
171.3183632113113
172.9629674250957
176.18987325850475
182.06308766607225
191.97215741878702
207.4913001460716
229.6714521353516
281.9055046460986
238.70237174960351
206.43003257503534
183.63809915161625
168.42940355997868
158.83352854495848
153.09874424208175
149.84457950089526
148.0863652791139
147.17911689730596
146.73063324241312
146.51759469352345
146.42006991588187
146.3769328192834
146.3584722740454
146.35088996437273
146.3481629017822
146.34820090559353
146.3516497930655
146.36303382451152
146.39531386039445
146.48084112994707
146.69392136145598
147.191812995785
148.27923401456212
150.49222309605688
154.67828053458547
162.02603903585117
173.9834263166411
191.97214968449538
217.21007070741945
252.6633828057082
213.02861267202852
183.63809093325614
162.98874423286384
149.24951538729465
140.58837585487885
135.4084041763351
132.46342037396514
130.8678852104375
130.04189038455206
129.6321223733944
129.436767992594
129.34701838255154
129.30718900441906
129.29011387341276
129.28316145616517
129.28091806376432
129.28185105506614
129.28766212580715
129.30536093738368
129.35367080664284
129.47733636019765
129.77491962493616
130.446289632602
131.86204593466752
134.64516599353811
139.7350572227998
148.38344986453782
162.02605215053612
182.06309744859766
209.54797973937437
232.3792710567854
195.66571529096836
168.4293787872454
149.24956067704997
136.44189650340803
128.3321587137367
123.45849736002327
120.67405155869835
119.15832472515608
118.3701432206638
117.9775344730175
117.78967094677115
117.70308201247217
117.66455506677974
117.64803089379407
117.64140375066445
117.63962449447139
117.64171062278983
117.65061443621046
117.67627653808636
117.74386395424456
117.91109406134535
118.30011802999519
119.14887847412838
120.88118476997212
124.18157739970641
130.04222397713343
139.73505015089046
154.67827327443268
176.1898606956188
205.17687970252143
219.1290461726006
184.59052998792583
158.83355043107153
140.5883460348403
128.33214899491247
120.52761966944392
115.81325361153247
113.10759442655386
111.62898020609316
110.85752430492597
110.47216474587844
110.28733335748811
110.20197740007508
110.16395218278748
110.14767156256335
110.14129157756163
110.14005421108676
110.1435827160157
110.15623995233379
110.19112412896564
110.2799213222692
110.49256269277693
110.97167870775074
111.98531202049463
113.99477146071416
117.72161515135734
124.18157471609685
134.64516513551862
150.49222488029102
172.96293883064632
202.86589970582105
210.961154354796
177.91384594734288
153.09877744116594
135.40837589928412
123.45848976111861
115.81325313159067
111.17729499541751
108.50836676090168
107.04619193904207
106.28180320050805
105.89937487739437
105.7157223302859
105.63083361106041
105.59300730650969
105.57686853606555
105.57073973507038
105.57014739088127
105.57536308828128
105.59221796233601
105.63690390571615
105.7470584765783
106.00293160160999
106.56299359705042
107.71626408161043
109.94692276049672
113.99476857304309
120.8811779270099
131.86203522648643
148.2792286285343
171.31835980492696
201.73241225917835
206.19762979514718
174.09969651496777
149.84454033506998
132.4634046103694
120.67405583378537
113.10760415975736
108.50836628747338
105.85577555193439
104.40056778094667
103.63904671762866
103.25775814253505
103.07454924043907
102.9898367082002
102.95210393095675
102.93608356933174
102.93023325946534
102.93036784764016
102.9374095941653
102.95858411408919
103.0128300092264
103.14268513348583
103.43620801890744
104.06274971914027
105.3241205010578
107.71626274395847
111.9853100960633
119.14887866582883
130.4462896290926
147.19180057267656
170.53933687662894
201.2153519791926
203.56134752903705
172.02864748771057
148.08634816100155
130.86788321158082
119.15833287603394
111.62897671051483
107.0461916351562
104.40057144749736
102.94820553911667
102.18780503801321
101.80694568344781
101.62390065464226
101.53925906701454
101.50158634380517
101.48568459087032
101.48013635744317
101.48103360653364
101.48989930751934
101.51516513572712
101.57797594014713
101.7245006440966
102.0480781750198
102.72465633183081
104.06275069039921
106.56299339940881
110.97167762407615
118.3001169941071
129.77491670695653
146.69392794805697
170.19541723455367
200.99530593770803
202.17237531090413
170.9561062641728
147.17912508476428
130.0418999012562
118.37015840625219
110.85752491443368
106.28180676603138
103.63904608915522
102.18780448073156
101.4278272241114
101.04712693590167
100.86414370587639
100.77953796072262
100.74191692349395
100.72613737334011
100.72089670997887
100.7225350383237
100.73308172672054
100.76191575690899
100.83178451351775
100.99127327386054
101.33689526684182
102.04807747901445
103.4362076889475
106.00293157270268
110.49256257937222
117.91109477910251
129.4773233464372
146.48083102023756
170.05334995110474
200.90755678365167
201.47321140779636
170.42470874028476
146.73063941301245
129.63213200928567
117.97752797690069
110.47216549745227
105.89937924787836
103.25775792048205
101.80694630629733
101.0471268653007
100.66648589169557
100.48352964854303
100.398949833444
100.36137921445307
100.34572131051942
100.34077259506151
100.34307755134165
100.35505502922909
100.38675892317238
100.46198644981841
100.63076119937644
100.99127378598108
101.72450086412859
103.14268450653599
105.7470575033093
110.27992064871286
117.74386221867611
129.3536711573706
146.3953208801421
169.9983038194247
200.87466922938526
201.1355844194853
170.17191908260128
146.51759314775435
129.436776718407
117.78966247668046
110.28733462557092
105.71571905458637
103.07454934478932
101.62389909110091
100.86414365025021
100.4835299650766
100.30059261926462
100.21603846664739
100.17851902156006
100.16297641889115
100.158286403672
100.16114749205532
100.17425123725658
100.20808732240071
100.28707150026561
100.46198681856671
100.83178480798597
101.57797569382916
103.01283132737402
105.63690618492438
110.19112906717363
117.67627344009807
129.3053567424559
146.36303487527235
169.9782161810997
200.86313045955825
200.9789655760311
170.05613119410947
146.42007491269368
129.34700118232578
117.7030801690152
110.20198447918482
105.63083227312367
102.98983852392557
101.53925821963094
100.77953828717483
100.3989496237043
100.21603835089397
100.13151757140326
100.09405327824466
100.0786171406942
100.07414348237138
100.07743703457561
100.09136322047722
100.12666604797955
100.20808708842377
100.38675884576872
100.76191618498639
101.5151641120972
102.95858380466441
105.59221727329476
110.15623860648785
117.6506132746835
129.28766036674307
146.35165379472093
169.97142294131785
200.85953931202747
200.90885395829977
170.00489873662045
146.376939258812
129.30717264290925
117.66455503765988
110.16394603875453
105.5930069423706
102.95210211187556
101.5015857887916
100.74191746707012
100.36137894213203
100.17851899239838
100.09405325411024
100.05665726389759
100.0413231329059
100.03702540534177
100.04063632000705
100.05512279096051
100.09136318977549
100.17425129863045
100.35505498193876
100.73308201597511
101.48989925722168
102.93741085247588
105.57536548329556
110.14358042093993
117.64170703168159
129.28184578901391
146.34819975376456
169.96971724106507
200.85907629820377
200.878521969696
169.98298686567892
146.3584499624402
129.29011055607083
117.64804121375654
110.14766946392952
105.57687191134248
102.93608292418688
101.48568445467345
100.72613720508387
100.34572127511474
100.16297648749753
100.07861711797477
100.0413231526778
100.02610078669154
100.02195147752191
100.0257890353459
100.04063630150597
100.07743698144246
100.16114741341383
100.34307757351169
100.72253486705748
101.48103266068813
102.93036743038051
105.57014631756157
110.1400532631425
117.63962317159816
129.28091630610393
146.34814690358297
169.97044145936928
200.86073373686074
200.86581434276658
169.97394050280724
146.35087683171506
129.28316286825793
117.64139436924617
110.14129056277848
105.57073618938664
102.93023315173056
101.48013676332258
100.72089652994872
100.34077262221989
100.1582862225608
100.07414348662105
100.0370253751626
100.02195147707496
100.01794564782821
100.02195148510593
100.0370253870438
100.07414354471439
100.15828630559844
100.34077253061133
100.72089701398535
101.48013632376407
102.93023454964326
105.5707381901724
110.14128917709638
117.64140120284647
129.2831562784535
146.3508915125985
169.97391096799544
200.86584846407632
200.86079570435953
169.9704373652767
146.3481704917322
129.28093309727342
117.63962063848075
110.1400590803034
105.57014617082763
102.93036880293101
101.48103259131007
100.72253531690204
100.34307786513394
100.16114740221389
100.0774371066472
100.04063631088604
100.02578904273227
100.02195149072466
100.02610079858539
100.04132311511175
100.07861714062604
100.1629763628775
100.34572106260596
100.72613722251988
101.48568366502809
102.93608286925799
105.57686820487795
110.1476709260729
117.64803054547966
129.29009760155003
146.3584674683668
169.9829781003645
200.8785756789862
200.8591569673604
169.96970175489895
146.3482085712762
129.28183389932894
117.64170824740499
110.14357641019214
105.57536275033627
102.93741156187244
101.4898982984668
100.73308220141257
100.35505481241226
100.174251177604
100.09136316316949
100.05512277197293
100.04063633290926
100.03702541128887
100.04132313769037
100.05665728965549
100.09405329055508
100.17851894254714
100.3613791653779
100.74191720072827
101.5015864724951
102.95210312137667
105.59300609321105
110.16395054140628
117.66455210996855
129.30718773692172
146.3769261113359
170.00492697201835
200.90895172482126
200.85948682074468
169.97143040056008
146.35165988399325
129.2876450058788
117.65061530878222
110.15623417151149
105.59221739646641
102.95858241134539
101.51516434499246
100.7619164431192
100.38675865262903
100.2080872691302
100.12666601929521
100.09136319979972
100.07743702946634
100.07414347839033
100.0786171288478
100.09405330371618
100.13151753994414
100.21603831928626
100.39894977438102
100.77953818472737
101.5392588014862
102.98983761278187
105.63083540359492
110.20198171298337
117.70307815468067
129.34702183802148
146.4200734355645
170.0561624894722
200.97903974205198
200.8630952175667
169.9782166403955
146.36301228463265
129.30535668065426
117.67626637475342
110.19112443964278
105.6369075140697
103.0128296642975
101.57797611322691
100.83178450337785
100.46198658542326
100.28707144256396
100.20808727341783
100.1742512683266
100.16114750875519
100.15828640561436
100.16297642922295
100.17851903680341
100.216038437976
100.300592717172
100.48352981517408
100.8641439771849
101.6238995702497
103.07454880046595
105.71572150654714
110.28733215703905
117.78967026935983
129.4367592623294
146.51759149918257
170.17193612105012
201.13560808325585
200.87465730175398
169.99830231837265
146.3952968089947
129.35367376995583
117.74385545011378
110.27992127578489
105.74705528641391
103.14268509293417
101.72450142838942
100.99127342700726
100.63076157911595
100.46198641121623
100.38675887738127
100.35505500603054
100.34307752449281
100.34077259945816
100.34572134788993
100.36137919350459
100.39894982860105
100.4835297114471
100.66648581197786
101.04712712329031
101.80694572029985
103.25775947897417
105.89937694603185
110.47216250536522
117.97753656907591
129.6321187303455
146.73063468511305
170.42471052473468
201.4730078010764
200.90754190439262
170.0533197933114
146.48083238037452
129.4773139368307
117.9110885387196
110.49256540767004
106.00292901652662
103.43620858685941
102.04807697151881
101.3368948394549
100.99127314307452
100.83178437901475
100.76191581269642
100.73308179468668
100.72253504927646
100.72089672045608
100.72613738571653
100.74191690522113
100.77953799824614
100.86414361122806
101.04712707534335
101.42782736692331
102.1878040414741
103.63904708753871
106.28180432402849
110.85752755248616
118.37014160954215
130.0418892216173
147.17912361388534
170.95611066650252
202.17223229806066
200.99534359956468
170.19540828526783
146.6939481448405
129.77491859489265
118.30012606486106
110.97167904647881
106.5629978029535
104.06275409581124
102.724657501757
102.04808046789763
101.72450206113491
101.5779772232533
101.51516642223551
101.48990057012941
101.48103499903317
101.48013782765366
101.48568591835232
101.5015877220996
101.53926039647726
101.62390180737098
101.80694691195733
102.18780561599894
102.9482068544505
104.4005697912546
107.04618827879823
111.62897819982436
119.15831771999072
130.86787322389563
148.0863531156824
172.0285442379359
203.5613073505402
201.2153454713232
170.5393624696615
147.19180594461244
130.44629318311453
119.14889134741006
111.9853116672723
107.716268451395
105.32412303911337
104.06275190617266
103.43621042035201
103.1426873593014
103.01283263387236
102.95858688583405
102.93741221114847
102.93037045288222
102.93023584835665
102.93608610877381
102.95210645174573
102.98983908420199
103.0745516896852
103.25776033733841
103.63904851748849
104.40057003525787
105.85577524281854
108.50836814158825
113.10759302959673
120.67404931986556
132.46341126373179
149.8445739591474
174.09966815679672
206.19765651446033
201.73239139852976
171.31838820700372
148.27922993431056
131.8620456254985
120.88117737850466
113.994773874999
109.94692743481109
107.71626546382701
106.56299714216136
106.00293383976006
105.74706041852357
105.6369058952355
105.59221995338616
105.57536551094566
105.5701500316481
105.57074199737187
105.57687092812623
105.59300946501276
105.63083546568855
105.71572421425974
105.89937648859727
106.28180536620431
107.04619276557591
108.50836752538105
111.17729957638643
115.81324995615249
123.45849610506397
135.4084052270934
153.09874366007307
177.9138589455515
210.96123626953826
202.86593842210345
172.96293725243845
150.49221640211172
134.64517164338952
124.18156852868108
117.72161752649275
113.99477037955194
111.98531087964452
110.97167792534748
110.49256157736889
110.27992121302611
110.191124721754
110.1562403669907
110.14358312611171
110.14005450639903
110.14129176810951
110.14767156001962
110.16395184108026
110.20197698783123
110.2873324544386
110.47216409277192
110.85752450128568
111.62897968060554
113.10759626743376
115.81324966845683
120.52762241546432
128.33216716331066
140.58839091335346
158.833549787658
184.59055975768902
219.12913866285405
205.17690992303014
176.1898373158483
154.67826563598146
139.73503274117476
130.042218826873
124.18157364986295
120.88117667819733
119.14887364643579
118.30011124512845
117.9110867607792
117.74385710291767
117.67627010268598
117.6506091560222
117.6417056870226
117.63961866973453
117.64139813973779
117.64802452703789
117.6645477251291
117.70307431889836
117.78966330141607
117.97752781768197
118.37013675270249
119.1583198926031
120.67404970184974
123.45849223547518
128.33216281645898
136.4419189936354
149.24953589585908
168.42938000623602
195.66574634680907
232.3793264782025
209.5479750442606
182.06309699448573
162.0260771450205
148.383461581526
139.73508138632855
134.64518469802726
131.86206285705748
130.446305486017
129.7749341622592
129.4773530967725
129.35369011977102
129.3053808205464
129.28768167524873
129.28186985227813
129.28093686915335
129.28317976116443
129.29013079158358
129.30720467042468
129.3470327321696
129.43678366701118
129.63214036843436
130.04190914549517
130.8679053497184
132.463436614664
135.40842431842847
140.5884051308737
149.24955853541732
162.98874181633536
183.63809219120625
213.02862953464137
252.66344279377017
217.21004420201916
191.9721630500299
173.98343335490205
162.02606565708612
154.6783085784191
150.49224189215556
148.27925421768484
147.19182863743427
146.69393580384778
146.48085868618548
146.3953354191159
146.36305700601915
146.35167126920524
146.3482212376838
146.34818475165105
146.35090969495377
146.35848781755456
146.37694568080107
146.42008321085706
146.51761203129522
146.73065424707394
147.17914058624865
148.08638882983374
149.84459920312491
153.09876952946388
158.8335628170927
168.4293941758665
183.63809621903107
206.4300346399067
238.70239268316644
281.90559564797195
229.6714231388062
207.49130179672537
191.9721620124151
182.0631129998556
176.18988515726684
172.9629736585481
171.31836429745255
170.5393462527401
170.19540266025356
170.05337526800372
169.9983125396413
169.9782283346242
169.97145679653786
169.96972630259052
169.97046288685954
169.9739334967844
169.98299388151284
170.0049223709723
170.05615270319203
170.17195107948032
170.42472580243614
170.95611975627847
172.02859206048632
174.09969020656177
177.91387128620647
184.59056652863427
195.66575490349192
213.02864356369642
238.70238894183893
274.45951028759197
321.5245546565209
248.83421426035034
229.6714156083296
217.21009506860028
209.54802302632154
205.17689857440809
202.86590967803355
201.73238747927238
201.21530486632622
200.9952764829176
200.90758960421033
200.87469175677867
200.86312438430957
200.859527825326
200.85909538362256
200.86076496047826
200.86585026195954
200.8785481829385
200.90889800801605
200.9790174170378
201.1356202776504
201.47302094580854
202.17224662185035
203.5613496274839
206.1976515210438
210.9612220743896
219.12912449364657
232.37934176440126
252.66345069320394
281.905560609334
321.5245241536112
371.03955617390625
