# vtk DataFile Version 2.0
Unstructured Grid Example
ASCII
DATASET UNSTRUCTURED_GRID

POINTS 961 float
0.150000006 -0.00839745998 0
0.146666661 -0.00839745998 0
0.143333331 -0.00839745998 0
0.140000001 -0.00839745998 0
0.13666667 -0.00839745998 0
0.13333334 -0.00839745998 0
0.129999995 -0.00839745998 0
0.126666665 -0.00839745998 0
0.123333335 -0.00839745998 0
0.119999997 -0.00839745998 0
0.116666667 -0.00839745998 0
0.113333337 -0.00839745998 0
0.109999999 -0.00839745998 0
0.106666669 -0.00839745998 0
0.103333332 -0.00839745998 0
0.100000001 -0.00839745998 0
0.0966666639 -0.00839745998 0
0.0933333337 -0.00839745998 0
0.0900000036 -0.00839745998 0
0.086666666 -0.00839745998 0
0.0833333358 -0.00839745998 0
0.0799999982 -0.00839745998 0
0.0766666681 -0.00839745998 0
0.0733333305 -0.00839745998 0
0.0700000003 -0.00839745998 0
0.0666666701 -0.00839745998 0
0.0633333325 -0.00839745998 0
0.0599999987 -0.00839745998 0
0.0566666685 -0.00839745998 0
0.0533333346 -0.00839745998 0
0.0500000007 -0.00839745998 0
0.148333326 -0.0112842107 0
0.144999996 -0.0112842107 0
0.141666666 -0.0112842107 0
0.138333336 -0.0112842107 0
0.135000005 -0.0112842107 0
0.13166666 -0.0112842107 0
0.12833333 -0.0112842107 0
0.125 -0.0112842107 0
0.12166667 -0.0112842107 0
0.118333332 -0.0112842107 0
0.115000002 -0.0112842107 0
0.111666664 -0.0112842107 0
0.108333334 -0.0112842107 0
0.104999997 -0.0112842107 0
0.101666667 -0.0112842107 0
0.0983333364 -0.0112842107 0
0.0949999988 -0.0112842107 0
0.0916666687 -0.0112842107 0
0.088333331 -0.0112842107 0
0.0850000009 -0.0112842107 0
0.0816666633 -0.0112842107 0
0.0783333331 -0.0112842107 0
0.075000003 -0.0112842107 0
0.0716666654 -0.0112842107 0
0.0683333352 -0.0112842107 0
0.0649999976 -0.0112842107 0
0.0616666675 -0.0112842107 0
0.0583333336 -0.0112842107 0
0.0549999997 -0.0112842107 0
0.0516666658 -0.0112842107 0
0.0483333319 -0.0112842107 0
0.146666661 -0.0141709624 0
0.143333331 -0.0141709624 0
0.140000001 -0.0141709624 0
0.13666667 -0.0141709624 0
0.13333334 -0.0141709624 0
0.129999995 -0.0141709624 0
0.126666665 -0.0141709624 0
0.123333335 -0.0141709624 0
0.119999997 -0.0141709624 0
0.116666667 -0.0141709624 0
0.113333337 -0.0141709624 0
0.109999999 -0.0141709624 0
0.106666669 -0.0141709624 0
0.103333332 -0.0141709624 0
0.100000001 -0.0141709624 0
0.0966666639 -0.0141709624 0
0.0933333337 -0.0141709624 0
0.0900000036 -0.0141709624 0
0.086666666 -0.0141709624 0
0.0833333358 -0.0141709624 0
0.0799999982 -0.0141709624 0
0.0766666681 -0.0141709624 0
0.0733333305 -0.0141709624 0
0.0700000003 -0.0141709624 0
0.0666666701 -0.0141709624 0
0.0633333325 -0.0141709624 0
0.0599999987 -0.0141709624 0
0.0566666685 -0.0141709624 0
0.0533333346 -0.0141709624 0
0.0500000007 -0.0141709624 0
0.0466666669 -0.0141709624 0
0.144999996 -0.0170577131 0
0.141666666 -0.0170577131 0
0.138333336 -0.0170577131 0
0.135000005 -0.0170577131 0
0.13166666 -0.0170577131 0
0.12833333 -0.0170577131 0
0.125 -0.0170577131 0
0.12166667 -0.0170577131 0
0.118333332 -0.0170577131 0
0.115000002 -0.0170577131 0
0.111666664 -0.0170577131 0
0.108333334 -0.0170577131 0
0.104999997 -0.0170577131 0
0.101666667 -0.0170577131 0
0.0983333364 -0.0170577131 0
0.0949999988 -0.0170577131 0
0.0916666687 -0.0170577131 0
0.088333331 -0.0170577131 0
0.0850000009 -0.0170577131 0
0.0816666633 -0.0170577131 0
0.0783333331 -0.0170577131 0
0.075000003 -0.0170577131 0
0.0716666654 -0.0170577131 0
0.0683333352 -0.0170577131 0
0.0649999976 -0.0170577131 0
0.0616666675 -0.0170577131 0
0.0583333336 -0.0170577131 0
0.0549999997 -0.0170577131 0
0.0516666658 -0.0170577131 0
0.0483333319 -0.0170577131 0
0.0450000018 -0.0170577131 0
0.143333331 -0.0199444648 0
0.140000001 -0.0199444648 0
0.13666667 -0.0199444648 0
0.13333334 -0.0199444648 0
0.129999995 -0.0199444648 0
0.126666665 -0.0199444648 0
0.123333335 -0.0199444648 0
0.119999997 -0.0199444648 0
0.116666667 -0.0199444648 0
0.113333337 -0.0199444648 0
0.109999999 -0.0199444648 0
0.106666669 -0.0199444648 0
0.103333332 -0.0199444648 0
0.100000001 -0.0199444648 0
0.0966666639 -0.0199444648 0
0.0933333337 -0.0199444648 0
0.0900000036 -0.0199444648 0
0.086666666 -0.0199444648 0
0.0833333358 -0.0199444648 0
0.0799999982 -0.0199444648 0
0.0766666681 -0.0199444648 0
0.0733333305 -0.0199444648 0
0.0700000003 -0.0199444648 0
0.0666666701 -0.0199444648 0
0.0633333325 -0.0199444648 0
0.0599999987 -0.0199444648 0
0.0566666685 -0.0199444648 0
0.0533333346 -0.0199444648 0
0.0500000007 -0.0199444648 0
0.0466666669 -0.0199444648 0
0.043333333 -0.0199444648 0
0.141666666 -0.0228312165 0
0.138333336 -0.0228312165 0
0.135000005 -0.0228312165 0
0.13166666 -0.0228312165 0
0.12833333 -0.0228312165 0
0.125 -0.0228312165 0
0.12166667 -0.0228312165 0
0.118333332 -0.0228312165 0
0.115000002 -0.0228312165 0
0.111666664 -0.0228312165 0
0.108333334 -0.0228312165 0
0.104999997 -0.0228312165 0
0.101666667 -0.0228312165 0
0.0983333364 -0.0228312165 0
0.0949999988 -0.0228312165 0
0.0916666687 -0.0228312165 0
0.088333331 -0.0228312165 0
0.0850000009 -0.0228312165 0
0.0816666633 -0.0228312165 0
0.0783333331 -0.0228312165 0
0.075000003 -0.0228312165 0
0.0716666654 -0.0228312165 0
0.0683333352 -0.0228312165 0
0.0649999976 -0.0228312165 0
0.0616666675 -0.0228312165 0
0.0583333336 -0.0228312165 0
0.0549999997 -0.0228312165 0
0.0516666658 -0.0228312165 0
0.0483333319 -0.0228312165 0
0.0450000018 -0.0228312165 0
0.0416666679 -0.0228312165 0
0.140000001 -0.0257179681 0
0.13666667 -0.0257179681 0
0.13333334 -0.0257179681 0
0.129999995 -0.0257179681 0
0.126666665 -0.0257179681 0
0.123333335 -0.0257179681 0
0.119999997 -0.0257179681 0
0.116666667 -0.0257179681 0
0.113333337 -0.0257179681 0
0.109999999 -0.0257179681 0
0.106666669 -0.0257179681 0
0.103333332 -0.0257179681 0
0.100000001 -0.0257179681 0
0.0966666639 -0.0257179681 0
0.0933333337 -0.0257179681 0
0.0900000036 -0.0257179681 0
0.086666666 -0.0257179681 0
0.0833333358 -0.0257179681 0
0.0799999982 -0.0257179681 0
0.0766666681 -0.0257179681 0
0.0733333305 -0.0257179681 0
0.0700000003 -0.0257179681 0
0.0666666701 -0.0257179681 0
0.0633333325 -0.0257179681 0
0.0599999987 -0.0257179681 0
0.0566666685 -0.0257179681 0
0.0533333346 -0.0257179681 0
0.0500000007 -0.0257179681 0
0.0466666669 -0.0257179681 0
0.043333333 -0.0257179681 0
0.0399999991 -0.0257179681 0
0.138333336 -0.0286047198 0
0.135000005 -0.0286047198 0
0.13166666 -0.0286047198 0
0.12833333 -0.0286047198 0
0.125 -0.0286047198 0
0.12166667 -0.0286047198 0
0.118333332 -0.0286047198 0
0.115000002 -0.0286047198 0
0.111666664 -0.0286047198 0
0.108333334 -0.0286047198 0
0.104999997 -0.0286047198 0
0.101666667 -0.0286047198 0
0.0983333364 -0.0286047198 0
0.0949999988 -0.0286047198 0
0.0916666687 -0.0286047198 0
0.088333331 -0.0286047198 0
0.0850000009 -0.0286047198 0
0.0816666633 -0.0286047198 0
0.0783333331 -0.0286047198 0
0.075000003 -0.0286047198 0
0.0716666654 -0.0286047198 0
0.0683333352 -0.0286047198 0
0.0649999976 -0.0286047198 0
0.0616666675 -0.0286047198 0
0.0583333336 -0.0286047198 0
0.0549999997 -0.0286047198 0
0.0516666658 -0.0286047198 0
0.0483333319 -0.0286047198 0
0.0450000018 -0.0286047198 0
0.0416666679 -0.0286047198 0
0.038333334 -0.0286047198 0
0.13666667 -0.0314914696 0
0.13333334 -0.0314914696 0
0.129999995 -0.0314914696 0
0.126666665 -0.0314914696 0
0.123333335 -0.0314914696 0
0.119999997 -0.0314914696 0
0.116666667 -0.0314914696 0
0.113333337 -0.0314914696 0
0.109999999 -0.0314914696 0
0.106666669 -0.0314914696 0
0.103333332 -0.0314914696 0
0.100000001 -0.0314914696 0
0.0966666639 -0.0314914696 0
0.0933333337 -0.0314914696 0
0.0900000036 -0.0314914696 0
0.086666666 -0.0314914696 0
0.0833333358 -0.0314914696 0
0.0799999982 -0.0314914696 0
0.0766666681 -0.0314914696 0
0.0733333305 -0.0314914696 0
0.0700000003 -0.0314914696 0
0.0666666701 -0.0314914696 0
0.0633333325 -0.0314914696 0
0.0599999987 -0.0314914696 0
0.0566666685 -0.0314914696 0
0.0533333346 -0.0314914696 0
0.0500000007 -0.0314914696 0
0.0466666669 -0.0314914696 0
0.043333333 -0.0314914696 0
0.0399999991 -0.0314914696 0
0.0366666652 -0.0314914696 0
0.135000005 -0.0343782231 0
0.13166666 -0.0343782231 0
0.12833333 -0.0343782231 0
0.125 -0.0343782231 0
0.12166667 -0.0343782231 0
0.118333332 -0.0343782231 0
0.115000002 -0.0343782231 0
0.111666664 -0.0343782231 0
0.108333334 -0.0343782231 0
0.104999997 -0.0343782231 0
0.101666667 -0.0343782231 0
0.0983333364 -0.0343782231 0
0.0949999988 -0.0343782231 0
0.0916666687 -0.0343782231 0
0.088333331 -0.0343782231 0
0.0850000009 -0.0343782231 0
0.0816666633 -0.0343782231 0
0.0783333331 -0.0343782231 0
0.075000003 -0.0343782231 0
0.0716666654 -0.0343782231 0
0.0683333352 -0.0343782231 0
0.0649999976 -0.0343782231 0
0.0616666675 -0.0343782231 0
0.0583333336 -0.0343782231 0
0.0549999997 -0.0343782231 0
0.0516666658 -0.0343782231 0
0.0483333319 -0.0343782231 0
0.0450000018 -0.0343782231 0
0.0416666679 -0.0343782231 0
0.038333334 -0.0343782231 0
0.0350000001 -0.0343782231 0
0.13333334 -0.0372649729 0
0.129999995 -0.0372649729 0
0.126666665 -0.0372649729 0
0.123333335 -0.0372649729 0
0.119999997 -0.0372649729 0
0.116666667 -0.0372649729 0
0.113333337 -0.0372649729 0
0.109999999 -0.0372649729 0
0.106666669 -0.0372649729 0
0.103333332 -0.0372649729 0
0.100000001 -0.0372649729 0
0.0966666639 -0.0372649729 0
0.0933333337 -0.0372649729 0
0.0900000036 -0.0372649729 0
0.086666666 -0.0372649729 0
0.0833333358 -0.0372649729 0
0.0799999982 -0.0372649729 0
0.0766666681 -0.0372649729 0
0.0733333305 -0.0372649729 0
0.0700000003 -0.0372649729 0
0.0666666701 -0.0372649729 0
0.0633333325 -0.0372649729 0
0.0599999987 -0.0372649729 0
0.0566666685 -0.0372649729 0
0.0533333346 -0.0372649729 0
0.0500000007 -0.0372649729 0
0.0466666669 -0.0372649729 0
0.043333333 -0.0372649729 0
0.0399999991 -0.0372649729 0
0.0366666652 -0.0372649729 0
0.0333333351 -0.0372649729 0
0.13166666 -0.0401517227 0
0.12833333 -0.0401517227 0
0.125 -0.0401517227 0
0.12166667 -0.0401517227 0
0.118333332 -0.0401517227 0
0.115000002 -0.0401517227 0
0.111666664 -0.0401517227 0
[...]
POINT_DATA 961
SCALARS Temp float 1
LOOKUP_TABLE default
430.0810999118904
382.2392451900994
341.4852994606887
308.5861986848817
283.07915823138126
264.0723427946468
250.45517767701728
241.0712701242026
234.84691916286573
230.8695748452721
228.41864266517712
226.96042774276788
226.12172611226825
225.65486096952353
225.40322777926116
225.2723581337427
225.2082373340078
225.18275349345163
225.18549780007086
225.22124182340946
225.31312097805997
225.51221879239645
225.91463152167546
226.68653308480026
228.09565796894574
230.54413426696877
234.59307635551178
240.96649509728059
250.52451871661415
264.21005781715166
283.2115977704452
382.23927001778736
335.76140666929587
297.57290442581086
267.31913122174103
244.2722431166261
227.388188416724
215.49005559246987
207.42073584140675
202.1501260701142
198.83156431946077
196.81520104971932
195.6315091865271
194.95933460307816
194.58975054407338
194.39312501890652
194.2928207810506
194.2463629223663
194.23356995254503
194.25082995098893
194.31116244208775
194.4504114894405
194.74053350096725
195.3109300212307
196.37750431829645
198.2763036481926
201.49436551794463
206.6860698537742
214.66200293339378
226.34120636104896
242.67519670362793
264.2100844377425
341.48522130944446
297.57286769807627
261.9743631864555
234.15481753249122
213.21668204455787
198.04345450099274
187.45495298304556
180.33611996812633
175.72193117946694
172.8361077785119
171.09278891370423
170.07443496929457
169.49860521125336
169.18325997409312
169.01643157179237
168.932704320067
168.89690780234656
168.894446895496
168.92768018938978
169.0183064735572
169.21636810939998
169.6168852693065
170.38463694189232
171.78566585712144
174.22062164586896
178.25047902736577
184.60150163659972
194.1357557186819
207.77586039007736
226.3411986570489
250.5245402650822
308.5860916970788
267.3190703310497
234.15480610055002
208.43643227598687
189.2025841721011
175.33432070430513
165.6928768782093
159.22792357811406
155.04450070957472
152.43018692904081
150.85101142299644
149.92809714912877
149.40580055471867
149.11962319632948
148.9685954114742
148.89417317551016
148.8659381381183
148.87367574241046
148.9255318621
149.05245217554935
149.31967098974076
149.84608581080707
150.8313468104071
152.58804099050866
155.57244310642758
160.40285399950062
167.85188341304803
178.79928279334223
194.1357706589353
214.6620129042898
240.9664665453778
283.07904179786965
244.27217661104018
213.21664824732278
189.20264942912334
171.27166043857468
158.3481837431201
149.35857697271024
143.32265876399586
139.40935888932998
136.9580941754442
135.47351773471286
134.60350484875238
134.109856767328
133.83892003905447
133.6963131868094
133.62770270636892
133.60600463427863
133.6248368228493
133.6981598630902
133.86647602103332
134.21033754222447
134.87165240025223
136.0818427993232
138.19310636578902
141.70499547339955
147.27473828292298
155.69822821983033
167.85187510386757
184.60149314445863
206.68605750302092
234.59305598005244
264.0722233530805
227.38819129057194
198.04348972572333
175.33428587869392
158.34817178498548
146.07574247712535
137.51416392751474
131.74735798777292
127.99624181174644
125.6388757137143
124.2066706662763
123.36488304423372
122.88607072027077
122.62299239426427
122.4851374143125
122.42085172758233
122.40564160865635
122.43670269816846
122.53376443442617
122.74669857649296
123.17049411291723
123.96763512050074
125.3962257369701
127.83921785636855
131.82629596253966
138.03716365736344
147.27473424971922
160.40285307961844
178.25048054056296
201.49433492384858
230.5441241691105
250.45513505384835
215.49005758422857
187.45499635137944
165.6928434828537
149.35856635819215
137.5141623492516
129.22131407630215
123.61622435018627
119.95854631053581
117.6531526963836
116.2488553670849
115.42161450557056
114.95030425621192
114.69135384144752
114.55654472157049
114.49606465745276
114.48761456016437
114.53176147483498
114.6537232614298
114.91200198854487
115.41425070057359
116.3399788190695
117.96787242194378
120.70252541467012
125.09209678467309
131.82629157409062
141.70498598330673
155.57242902406657
174.22061737998337
198.27630063203694
228.09567050003025
241.07126006644617
207.42076136233942
180.3360751905189
159.22790264707808
143.3226669082982
131.74737373475247
123.61622288265464
118.10440649826464
114.49848306171442
112.22080167305587
110.8308603432781
110.01090486625918
109.54336985506706
109.28675666512585
109.15425978531057
109.09745219963948
109.09597009915419
109.15347476281143
109.30011678144817
109.60182556822022
110.17657182497003
111.21686993547203
113.01591285050034
115.99191886626807
120.70252294454157
127.83921411191659
138.19310755672038
152.58804140361565
171.7856517598779
196.37748928968037
226.68653738671478
234.84692380383544
202.1501955564679
175.72191672393433
155.04450051318182
139.40937073701775
127.99623516019503
119.95854473769627
114.4984915500667
110.92020352682758
108.65678711783683
107.27401021145306
106.45764069750498
105.99206792773349
105.73697407520176
105.60648724908492
105.5532948171049
105.5587282626876
105.62915732775565
105.79889423221998
106.13982193433745
106.77769749664839
107.91416764083456
109.85167801489732
113.0159149081089
117.967873031936
125.3962249359263
136.08184150751407
150.83134342763947
170.38464375120165
195.31094458704712
225.91466015818568
230.86970948096462
198.8315671672048
172.83611689573402
152.43019777793555
136.95811302417547
125.63887673816151
117.65315915555584
112.22079949494426
108.6567853395486
106.40049151307983
105.0212212426833
104.20663711001352
103.74218944812726
103.48825677693526
103.35963385243022
103.30992533645275
103.32189845996035
103.40415921425091
103.59430157536504
103.96864467278279
104.65837428873947
105.87098864860045
107.91416599941364
111.2168695565773
116.33997853752841
123.96763452650588
134.8716525261771
149.8460698623616
169.61687415881443
194.74052296097403
225.51222448162983
228.4188554017579
196.81520215036915
171.09279467315847
150.85102394957508
135.47350812326172
124.20667160069686
116.24886276451004
110.83086024500103
107.27401197143519
105.02122096132035
103.64368407236579
102.83006387846746
102.36638826740173
102.11346668017234
101.98659540275597
101.94012193755529
101.95797123287592
102.05048286458766
102.25766370413646
102.65889630114076
103.38884332103035
104.65837617390602
106.77769803375288
110.1765704060174
115.41424860336734
123.1704933249762
134.2103356085365
149.31967105733463
169.21637594544703
194.45042265021775
225.31310482853766
226.96041402242997
195.63148825151447
170.07443323114225
149.9281073325686
134.6034927862646
123.36488564502406
115.42160831628071
110.01090514485685
106.45763652505752
104.20663681519342
102.83006529639395
102.01710359933065
101.55409651427927
101.30213774997134
101.17690394175254
101.13332117639509
101.1561957705352
101.25712530679101
101.47776812883905
101.8994626649289
102.65889777518684
103.9686457070055
106.13982127586411
109.60182886415394
114.91200658431116
122.74670632601483
133.86647163879425
149.05244690926796
169.01830791012955
194.31116053178204
225.22123242039598
226.12166900948625
194.95930990843726
169.49860984812017
149.40577855734412
134.1098542148282
122.88608134487728
114.95030170187975
109.54337340533783
105.99206579007385
103.7421905340643
102.3663873514695
101.55409596048916
101.09182749161427
100.8408678549089
100.71717388891074
100.67610273545016
100.70309295433802
100.81059781033993
101.0413267834366
101.47776692750979
102.25766334513506
103.5943030614265
105.7988915503002
109.30011595852135
114.65372181641803
122.53376229347872
133.6981582852959
148.92552981199026
168.92768483920437
194.2508019697085
225.18551132440743
225.6547841726305
194.58971708897795
169.18326616164276
149.1196024470917
133.83891993649715
122.62298173713832
114.69135317608193
109.2867524155109
105.7369725441001
103.48825850640198
102.11346558992079
101.30213771957041
100.84086771957598
100.59106513069513
100.46888336199544
100.4299883476913
100.460250731628
100.57267479687576
100.81059763210611
101.25712564169301
102.05048275359349
103.40416019998868
105.62915714713135
109.1534775115596
114.53176600682882
122.43669904642519
133.6248319067171
148.87366932227354
168.89444596622832
194.23357324707973
225.1827546754954
225.4031674651361
194.39311449741203
169.0164052305687
148.96859058278673
133.6963265987309
122.48513383046267
114.55655050434746
109.15425839893722
105.60648685453491
103.3596332611399
101.98659531400945
101.17690427120735
100.71717374817416
100.46888351630466
100.34832810763403
100.31139505951445
100.34425128347532
100.46025060616213
100.70309264342832
101.15619538615573
101.95797128632766
103.32189784133361
105.55872570461388
109.0959691665588
114.48761273231004
122.40564012892051
133.60600286817697
148.86593606320235
168.8968893207482
194.2463542799979
225.20820711198326
225.27231260865975
194.29283213097446
168.93268852218696
148.8941741312559
133.62768828523693
122.42085006746358
114.49605766762444
109.09745203543908
105.5532958808504
103.30992483835958
101.94012209246675
101.13332028532773
100.67610278665309
100.42998812936874
100.31139505948526
100.27639767444111
100.3113951272917
100.42998822588083
100.67610311043188
101.13332069769253
101.94012171385423
103.30992634379314
105.55329476692545
109.09745512704528
114.49606174812759
122.42084801277336
133.62769888561067
148.8941669974331
168.93270560420743
194.29280295953288
225.2723479357219
225.20826927498618
194.24634866005584
168.89691475423973
148.86595554415086
133.60599909246878
122.40564911190432
114.48761247785987
109.09597242770178
105.55872552000595
103.32189943280014
101.95797248073507
101.15619537415299
100.70309342166874
100.46025068780547
100.34425134673724
100.31139517175534
100.34832820391159
100.46888325018469
100.71717390478989
101.17690370549082
101.98659447903394
103.3596334436837
105.60648476298181
109.15425846634243
114.55654402120031
122.48513649648515
133.69631271146972
148.9685751144244
169.01642636744813
194.39310675895084
225.40322437282384
225.18283448380683
194.23355634807083
168.8944546724576
148.873653652054
133.6248337349716
122.43669248319459
114.53176110703974
109.1534790858448
105.62915472573084
103.40416082538499
102.05048206289969
101.2571250906094
100.81059744827755
100.57267465844198
100.46025083649072
100.42998838212472
100.46888340285318
100.59106530645815
100.84086794274678
101.30213747817892
102.11346645986009
103.48825771934956
105.73697441653007
109.2867549340999
114.69135166387876
122.62298960900618
133.83891625153126
149.11962111891083
169.18325268922706
194.58974830683414
225.6548860653899
225.18545661224343
194.25080843369034
168.92769068698632
148.92551111120127
133.69816108705504
122.53375542363887
114.65372237048528
109.30011281992942
105.79889227560638
103.59430385572178
102.25766257525017
101.47776779604264
101.04132659388537
100.81059766821689
100.70309292419256
100.67610271734758
100.71717377994023
100.8408680163513
101.09182731241471
101.55409578991286
102.36638801047263
103.74219019195267
105.99206743213038
109.54337161143188
114.95030760110315
122.88607731354952
134.1098513645855
149.40580508175913
169.49860876027157
194.9593446758671
226.1217467629069
225.2211957859823
194.31116027152228
169.01828244046192
149.0524475608082
133.86646196544783
122.7466993286881
114.91200903205045
109.60182533269737
106.13982236662727
103.96864465123409
102.65889689771457
101.89946234057928
101.47776785695174
101.25712553670544
101.15619580453145
101.13332118013702
101.17690402513654
101.30213785262974
101.55409635253248
102.01710406476418
102.83006474266412
104.20663788697777
106.45763794025208
110.010903884362
115.42161325343294
123.36488181106866
134.60350353216478
149.92808666887476
170.07443216281544
195.6315072615232
226.96043777516326
225.31309264737843
194.45042109279112
169.2163500492534
149.3196745174169
134.21032655740171
123.17049465099994
115.41424430658192
110.17657174518367
106.77769939600749
104.65837498131181
103.3888447757446
102.6588960207974
102.2576634540215
102.05048276285383
101.95797112180547
101.9401219318258
101.986595536889
102.11346655310848
102.36638817555416
102.83006420318958
103.64368374792745
105.0212218165779
107.27401051367477
110.83086367581299
116.24885870783861
124.20666685021071
135.47352117593186
150.85100779418158
171.0927899127413
196.81520273442231
228.41864504262782
225.51221035022098
194.74049240792365
169.61687660104346
149.84605844015422
134.87164418984258
123.96763873272255
116.33997386750521
111.21687140454824
107.91416448431372
105.87098731910629
104.6583737310671
103.96864415208005
103.59430195956445
103.40415929935435
103.32189845223267
103.30992537675213
103.35963388555436
103.48825666224
103.74218965052303
104.20663667567955
105.02122176450331
106.40049208281329
108.65678411237872
112.22080198156759
117.65315477180293
125.63888106419512
136.9580903996207
152.43018482894232
172.83611498006218
198.8315698725209
230.86955734034754
225.91469865595536
195.3109370087754
170.3846669794898
150.83134674316275
136.08185503739693
125.3962277281819
117.96788188460536
113.01592255493455
109.85168098077646
107.91417415257752
106.7777010778974
106.13982531564352
105.79889772056015
105.6291607292778
105.55873200251868
105.55329863432766
105.60649071904615
105.73697756738424
105.99207141789921
106.45764351847743
107.27401341340092
108.65678835406753
110.92020707204722
114.49848873419269
119.95853962186663
127.99623999937614
139.40935128178594
155.04449004310877
175.72192322930528
202.15008541602168
234.84688002428166
226.68653165910143
196.3775170272308
171.78565868611412
152.58804700235638
138.19312558677626
127.83921765682554
120.7025338408249
115.99192395631438
113.01591747713125
111.21687513343475
110.17657674891429
109.60183186541349
109.30012268829802
109.15348047170409
109.09597582330305
109.0974578456789
109.15426529702363
109.28676217603099
109.54337478601308
110.01091016126429
110.83086515299568
112.22080502292135
114.4984881377881
118.10440597069031
123.61622725189861
131.7473576493458
143.322659486245
159.22791270707924
180.3361160798794
207.4207297617068
241.0712893192134
228.09565118127014
198.27633002863746
174.22061933220746
155.57244219553687
141.70498541730046
131.826300191775
125.09210481295288
120.70252751798655
117.96787993042604
116.33998244662857
115.41425410673737
114.91200567549696
114.65372693809333
114.53176595244783
114.48761918569714
114.49606876119745
114.5565488997779
114.69135771539197
114.95030749684126
115.42161796978908
116.24885782374513
117.65315696879833
119.95854698000961
123.61622475875328
129.2213229843133
137.5141569784302
149.35857518667723
165.6928799517765
187.45495595497255
215.49007114003115
250.45522399202602
230.54416333865169
201.4943331483954
178.25047116805854
160.40286020345295
147.274725878864
138.03716700248413
131.82629317167385
127.83921516262556
125.39622399563781
123.96763314401767
123.17049451508576
122.74669895572309
122.5337647774282
122.4367031383682
122.40564187059266
122.42085183604149
122.48513720656622
122.62299153077811
122.88606995941467
123.36488178581017
124.2066692260173
125.6388763977724
127.99624010158026
131.74736147930994
137.51415562202928
146.0757453620856
158.34819567040785
175.33434268758893
198.04348559796975
227.3882235883719
264.07232458810546
234.59308445104168
206.68603244804132
184.60148354928344
167.85185313124163
155.69822115765146
147.274732652349
141.7049829575195
138.19310088381928
136.08183233852324
134.8716417822322
134.2103278293343
133.86646689433343
133.6981523300426
133.62482945415854
133.605996353498
133.6276944263105
133.69630398461607
133.83890962126304
134.10984610970715
134.60349397494824
135.47350906327847
136.9580845960345
139.40935126577307
143.32265871497697
149.358568800719
158.34818990409772
171.2716912575856
189.2026145259688
213.2166468888389
244.27221093203116
283.0791038172955
240.96646314367732
214.6620141299205
194.13579829651442
178.7992963462366
167.85191248469198
160.4028751924647
155.57246277904113
152.58806016847538
150.83136486030148
149.84610748326182
149.31969418514583
149.05247632942798
148.92555588511414
148.87369895568708
148.86596120797716
148.89419544672285
148.96861590543685
149.1196423349993
149.40581844115894
149.92811605008714
150.851033610877
152.43020880000833
155.04452630050147
159.2279400468325
165.6929012452475
175.33436001250016
189.20264505358702
208.4364295168626
234.1548129775854
267.3190992816078
308.5861662035489
250.52451373619343
226.34121187099944
207.77586694830842
194.13578455555705
184.6015323013674
178.25049836766016
174.22064615658255
171.78568234377144
170.38465269890264
169.61690471621955
169.21639197349214
169.0183323011534
168.92770398592052
168.89446963686734
168.89693159831072
168.9327257422711
169.01644852666513
169.18327418823074
169.4986196513199
170.0744544089467
171.09281135015118
172.8361329105048
175.72196004223744
180.33614074506076
187.4549838233406
198.0435011523698
213.21666408807852
234.1548136541909
261.9743709265401
297.57289904246323
341.48532430745735
264.210054425381
242.6751966553591
226.34120898710432
214.66202851109455
206.68607977901794
201.4943700887145
198.27630366236124
196.37749867136708
195.31092946783457
194.7405481500058
194.45043124341976
194.31117265957243
194.25083704032104
194.23358273381092
194.246376105968
194.29282580112863
194.3931227387702
194.5897429119392
194.9593334677321
195.63152095643642
196.815217571494
198.8315800113591
202.15013155008518
207.42075013538766
215.49008324076465
227.38823248383835
244.27222312325625
267.3191089855017
297.5728934583925
335.7614225805275
382.23926026867133
283.2115500071415
264.21004548355876
250.52456302110315
240.96651038627323
234.59307401879815
230.54413436649037
228.09564465004536
226.6864891971828
225.91462929358886
225.51225675013293
225.31312752220416
225.22122640462965
225.18549970492657
225.18277399297634
225.2082384355413
225.27234936696297
225.4031956209291
225.65483056973918
226.12172304391677
226.96044903747128
228.4186573707846
230.8695742874534
234.84692010092664
241.07128167173698
250.4552086307474
264.07230969948046
283.0791233159978
308.5861710192025
341.485287666007
382.2392299587762
430.0807588078465
