# vtk DataFile Version 2.0
Unstructured Grid Example
ASCII
DATASET UNSTRUCTURED_GRID

POINTS 961 float
0.150000006 -0.00839745998 0
0.146666661 -0.00839745998 0
0.143333331 -0.00839745998 0
0.140000001 -0.00839745998 0
0.13666667 -0.00839745998 0
0.13333334 -0.00839745998 0
0.129999995 -0.00839745998 0
0.126666665 -0.00839745998 0
0.123333335 -0.00839745998 0
0.119999997 -0.00839745998 0
0.116666667 -0.00839745998 0
0.113333337 -0.00839745998 0
0.109999999 -0.00839745998 0
0.106666669 -0.00839745998 0
0.103333332 -0.00839745998 0
0.100000001 -0.00839745998 0
0.0966666639 -0.00839745998 0
0.0933333337 -0.00839745998 0
0.0900000036 -0.00839745998 0
0.086666666 -0.00839745998 0
0.0833333358 -0.00839745998 0
0.0799999982 -0.00839745998 0
0.0766666681 -0.00839745998 0
0.0733333305 -0.00839745998 0
0.0700000003 -0.00839745998 0
0.0666666701 -0.00839745998 0
0.0633333325 -0.00839745998 0
0.0599999987 -0.00839745998 0
0.0566666685 -0.00839745998 0
0.0533333346 -0.00839745998 0
0.0500000007 -0.00839745998 0
0.148333326 -0.0112842107 0
0.144999996 -0.0112842107 0
0.141666666 -0.0112842107 0
0.138333336 -0.0112842107 0
0.135000005 -0.0112842107 0
0.13166666 -0.0112842107 0
0.12833333 -0.0112842107 0
0.125 -0.0112842107 0
0.12166667 -0.0112842107 0
0.118333332 -0.0112842107 0
0.115000002 -0.0112842107 0
0.111666664 -0.0112842107 0
0.108333334 -0.0112842107 0
0.104999997 -0.0112842107 0
0.101666667 -0.0112842107 0
0.0983333364 -0.0112842107 0
0.0949999988 -0.0112842107 0
0.0916666687 -0.0112842107 0
0.088333331 -0.0112842107 0
0.0850000009 -0.0112842107 0
0.0816666633 -0.0112842107 0
0.0783333331 -0.0112842107 0
0.075000003 -0.0112842107 0
0.0716666654 -0.0112842107 0
0.0683333352 -0.0112842107 0
0.0649999976 -0.0112842107 0
0.0616666675 -0.0112842107 0
0.0583333336 -0.0112842107 0
0.0549999997 -0.0112842107 0
0.0516666658 -0.0112842107 0
0.0483333319 -0.0112842107 0
0.146666661 -0.0141709624 0
0.143333331 -0.0141709624 0
0.140000001 -0.0141709624 0
0.13666667 -0.0141709624 0
0.13333334 -0.0141709624 0
0.129999995 -0.0141709624 0
0.126666665 -0.0141709624 0
0.123333335 -0.0141709624 0
0.119999997 -0.0141709624 0
0.116666667 -0.0141709624 0
0.113333337 -0.0141709624 0
0.109999999 -0.0141709624 0
0.106666669 -0.0141709624 0
0.103333332 -0.0141709624 0
0.100000001 -0.0141709624 0
0.0966666639 -0.0141709624 0
0.0933333337 -0.0141709624 0
0.0900000036 -0.0141709624 0
0.086666666 -0.0141709624 0
0.0833333358 -0.0141709624 0
0.0799999982 -0.0141709624 0
0.0766666681 -0.0141709624 0
0.0733333305 -0.0141709624 0
0.0700000003 -0.0141709624 0
0.0666666701 -0.0141709624 0
0.0633333325 -0.0141709624 0
0.0599999987 -0.0141709624 0
0.0566666685 -0.0141709624 0
0.0533333346 -0.0141709624 0
0.0500000007 -0.0141709624 0
0.0466666669 -0.0141709624 0
0.144999996 -0.0170577131 0
0.141666666 -0.0170577131 0
0.138333336 -0.0170577131 0
0.135000005 -0.0170577131 0
0.13166666 -0.0170577131 0
0.12833333 -0.0170577131 0
0.125 -0.0170577131 0
0.12166667 -0.0170577131 0
0.118333332 -0.0170577131 0
0.115000002 -0.0170577131 0
0.111666664 -0.0170577131 0
0.108333334 -0.0170577131 0
0.104999997 -0.0170577131 0
0.101666667 -0.0170577131 0
0.0983333364 -0.0170577131 0
0.0949999988 -0.0170577131 0
0.0916666687 -0.0170577131 0
0.088333331 -0.0170577131 0
0.0850000009 -0.0170577131 0
0.0816666633 -0.0170577131 0
0.0783333331 -0.0170577131 0
0.075000003 -0.0170577131 0
0.0716666654 -0.0170577131 0
0.0683333352 -0.0170577131 0
0.0649999976 -0.0170577131 0
0.0616666675 -0.0170577131 0
0.0583333336 -0.0170577131 0
0.0549999997 -0.0170577131 0
0.0516666658 -0.0170577131 0
0.0483333319 -0.0170577131 0
0.0450000018 -0.0170577131 0
0.143333331 -0.0199444648 0
0.140000001 -0.0199444648 0
0.13666667 -0.0199444648 0
0.13333334 -0.0199444648 0
0.129999995 -0.0199444648 0
0.126666665 -0.0199444648 0
0.123333335 -0.0199444648 0
0.119999997 -0.0199444648 0
0.116666667 -0.0199444648 0
0.113333337 -0.0199444648 0
0.109999999 -0.0199444648 0
0.106666669 -0.0199444648 0
0.103333332 -0.0199444648 0
0.100000001 -0.0199444648 0
0.0966666639 -0.0199444648 0
0.0933333337 -0.0199444648 0
0.0900000036 -0.0199444648 0
0.086666666 -0.0199444648 0
0.0833333358 -0.0199444648 0
0.0799999982 -0.0199444648 0
0.0766666681 -0.0199444648 0
0.0733333305 -0.0199444648 0
0.0700000003 -0.0199444648 0
0.0666666701 -0.0199444648 0
0.0633333325 -0.0199444648 0
0.0599999987 -0.0199444648 0
0.0566666685 -0.0199444648 0
0.0533333346 -0.0199444648 0
0.0500000007 -0.0199444648 0
0.0466666669 -0.0199444648 0
0.043333333 -0.0199444648 0
0.141666666 -0.0228312165 0
0.138333336 -0.0228312165 0
0.135000005 -0.0228312165 0
0.13166666 -0.0228312165 0
0.12833333 -0.0228312165 0
0.125 -0.0228312165 0
0.12166667 -0.0228312165 0
0.118333332 -0.0228312165 0
0.115000002 -0.0228312165 0
0.111666664 -0.0228312165 0
0.108333334 -0.0228312165 0
0.104999997 -0.0228312165 0
0.101666667 -0.0228312165 0
0.0983333364 -0.0228312165 0
0.0949999988 -0.0228312165 0
0.0916666687 -0.0228312165 0
0.088333331 -0.0228312165 0
0.0850000009 -0.0228312165 0
0.0816666633 -0.0228312165 0
0.0783333331 -0.0228312165 0
0.075000003 -0.0228312165 0
0.0716666654 -0.0228312165 0
0.0683333352 -0.0228312165 0
0.0649999976 -0.0228312165 0
0.0616666675 -0.0228312165 0
0.0583333336 -0.0228312165 0
0.0549999997 -0.0228312165 0
0.0516666658 -0.0228312165 0
0.0483333319 -0.0228312165 0
0.0450000018 -0.0228312165 0
0.0416666679 -0.0228312165 0
0.140000001 -0.0257179681 0
0.13666667 -0.0257179681 0
0.13333334 -0.0257179681 0
0.129999995 -0.0257179681 0
0.126666665 -0.0257179681 0
0.123333335 -0.0257179681 0
0.119999997 -0.0257179681 0
0.116666667 -0.0257179681 0
0.113333337 -0.0257179681 0
0.109999999 -0.0257179681 0
0.106666669 -0.0257179681 0
0.103333332 -0.0257179681 0
0.100000001 -0.0257179681 0
0.0966666639 -0.0257179681 0
0.0933333337 -0.0257179681 0
0.0900000036 -0.0257179681 0
0.086666666 -0.0257179681 0
0.0833333358 -0.0257179681 0
0.0799999982 -0.0257179681 0
0.0766666681 -0.0257179681 0
0.0733333305 -0.0257179681 0
0.0700000003 -0.0257179681 0
0.0666666701 -0.0257179681 0
0.0633333325 -0.0257179681 0
0.0599999987 -0.0257179681 0
0.0566666685 -0.0257179681 0
0.0533333346 -0.0257179681 0
0.0500000007 -0.0257179681 0
0.0466666669 -0.0257179681 0
0.043333333 -0.0257179681 0
0.0399999991 -0.0257179681 0
0.138333336 -0.0286047198 0
0.135000005 -0.0286047198 0
0.13166666 -0.0286047198 0
0.12833333 -0.0286047198 0
0.125 -0.0286047198 0
0.12166667 -0.0286047198 0
0.118333332 -0.0286047198 0
0.115000002 -0.0286047198 0
0.111666664 -0.0286047198 0
0.108333334 -0.0286047198 0
0.104999997 -0.0286047198 0
0.101666667 -0.0286047198 0
0.0983333364 -0.0286047198 0
0.0949999988 -0.0286047198 0
0.0916666687 -0.0286047198 0
0.088333331 -0.0286047198 0
0.0850000009 -0.0286047198 0
0.0816666633 -0.0286047198 0
0.0783333331 -0.0286047198 0
0.075000003 -0.0286047198 0
0.0716666654 -0.0286047198 0
0.0683333352 -0.0286047198 0
0.0649999976 -0.0286047198 0
0.0616666675 -0.0286047198 0
0.0583333336 -0.0286047198 0
0.0549999997 -0.0286047198 0
0.0516666658 -0.0286047198 0
0.0483333319 -0.0286047198 0
0.0450000018 -0.0286047198 0
0.0416666679 -0.0286047198 0
0.038333334 -0.0286047198 0
0.13666667 -0.0314914696 0
0.13333334 -0.0314914696 0
0.129999995 -0.0314914696 0
0.126666665 -0.0314914696 0
0.123333335 -0.0314914696 0
0.119999997 -0.0314914696 0
0.116666667 -0.0314914696 0
0.113333337 -0.0314914696 0
0.109999999 -0.0314914696 0
0.106666669 -0.0314914696 0
0.103333332 -0.0314914696 0
0.100000001 -0.0314914696 0
0.0966666639 -0.0314914696 0
0.0933333337 -0.0314914696 0
0.0900000036 -0.0314914696 0
0.086666666 -0.0314914696 0
0.0833333358 -0.0314914696 0
0.0799999982 -0.0314914696 0
0.0766666681 -0.0314914696 0
0.0733333305 -0.0314914696 0
0.0700000003 -0.0314914696 0
0.0666666701 -0.0314914696 0
0.0633333325 -0.0314914696 0
0.0599999987 -0.0314914696 0
0.0566666685 -0.0314914696 0
0.0533333346 -0.0314914696 0
0.0500000007 -0.0314914696 0
0.0466666669 -0.0314914696 0
0.043333333 -0.0314914696 0
0.0399999991 -0.0314914696 0
0.0366666652 -0.0314914696 0
0.135000005 -0.0343782231 0
0.13166666 -0.0343782231 0
0.12833333 -0.0343782231 0
0.125 -0.0343782231 0
0.12166667 -0.0343782231 0
0.118333332 -0.0343782231 0
0.115000002 -0.0343782231 0
0.111666664 -0.0343782231 0
0.108333334 -0.0343782231 0
0.104999997 -0.0343782231 0
0.101666667 -0.0343782231 0
0.0983333364 -0.0343782231 0
0.0949999988 -0.0343782231 0
0.0916666687 -0.0343782231 0
0.088333331 -0.0343782231 0
0.0850000009 -0.0343782231 0
0.0816666633 -0.0343782231 0
0.0783333331 -0.0343782231 0
0.075000003 -0.0343782231 0
0.0716666654 -0.0343782231 0
0.0683333352 -0.0343782231 0
0.0649999976 -0.0343782231 0
0.0616666675 -0.0343782231 0
0.0583333336 -0.0343782231 0
0.0549999997 -0.0343782231 0
0.0516666658 -0.0343782231 0
0.0483333319 -0.0343782231 0
0.0450000018 -0.0343782231 0
0.0416666679 -0.0343782231 0
0.038333334 -0.0343782231 0
0.0350000001 -0.0343782231 0
0.13333334 -0.0372649729 0
0.129999995 -0.0372649729 0
0.126666665 -0.0372649729 0
0.123333335 -0.0372649729 0
0.119999997 -0.0372649729 0
0.116666667 -0.0372649729 0
0.113333337 -0.0372649729 0
0.109999999 -0.0372649729 0
0.106666669 -0.0372649729 0
0.103333332 -0.0372649729 0
0.100000001 -0.0372649729 0
0.0966666639 -0.0372649729 0
0.0933333337 -0.0372649729 0
0.0900000036 -0.0372649729 0
0.086666666 -0.0372649729 0
0.0833333358 -0.0372649729 0
0.0799999982 -0.0372649729 0
0.0766666681 -0.0372649729 0
0.0733333305 -0.0372649729 0
0.0700000003 -0.0372649729 0
0.0666666701 -0.0372649729 0
0.0633333325 -0.0372649729 0
0.0599999987 -0.0372649729 0
0.0566666685 -0.0372649729 0
0.0533333346 -0.0372649729 0
0.0500000007 -0.0372649729 0
0.0466666669 -0.0372649729 0
0.043333333 -0.0372649729 0
0.0399999991 -0.0372649729 0
0.0366666652 -0.0372649729 0
0.0333333351 -0.0372649729 0
0.13166666 -0.0401517227 0
0.12833333 -0.0401517227 0
0.125 -0.0401517227 0
0.12166667 -0.0401517227 0
0.118333332 -0.0401517227 0
0.115000002 -0.0401517227 0
0.111666664 -0.0401517227 0
[...]
POINT_DATA 961
SCALARS Temp float 1
LOOKUP_TABLE default
407.09913794019633
358.48644858334296
317.9390252246584
286.1699017617975
262.43341832881697
245.50462728270594
233.97143964417205
226.45883369794527
221.7739561876097
218.9728468902868
217.364309998817
216.47550150257157
216.00202858977573
215.75841907142643
215.63719135035805
215.57893581159865
215.5524425976022
215.54267193808275
215.54453673705157
215.56122040803132
215.60699838937876
215.71575420260945
215.9575334837462
216.46578776056592
217.4763322472487
219.37465215251163
222.7406066475146
228.37181758637445
237.2652533721263
250.5515902050872
269.64641059082015
358.4864745034779
311.6136258383132
274.10060563860696
245.3416380651755
224.2855650180105
209.55749859398477
199.70937957340752
193.40792080571836
189.54443259417138
187.27116509874634
185.98526134975984
185.2846747185595
184.9163596491042
184.72919551045723
184.6372106018068
184.593767115421
184.57502603093113
184.5704666208704
184.57867028452551
184.6076471729329
184.68022893796706
184.84633536115322
185.20476458700531
185.9366728002371
187.35005378727178
189.9283956484453
194.3682865704289
201.58426893793748
212.66041681830353
228.74950856478796
250.55161672366881
317.9389482906347
274.10057021484215
239.53305340133542
213.4240710127665
194.55239829699238
181.49996742027554
172.85724481527933
167.37329058988385
164.03476154406832
162.08190952418147
160.98253150480144
160.38585622637478
160.0731181379883
159.9146039327893
159.8369756456378
159.8007698375372
159.78630435636478
159.785984310643
159.8016510569304
159.846745221915
159.9542915299592
160.1928873383684
160.69325144004267
161.68650400475997
163.5511842014933
166.85870261159235
172.39854771437953
181.15934502784893
194.24313585667431
212.66040907152302
237.26527443254102
286.1697978734261
245.34158015992296
213.42406067327124
189.49056400209753
172.28687636717643
160.43433813629673
152.60506569625633
147.6430551937346
144.62265255878322
142.8546249893841
141.85793245678775
141.31599674887383
141.03134934452456
140.88679675044102
140.81603196610277
140.78350143824704
140.771963641724
140.77606274309034
140.8009796088076
140.8663069287796
141.0165246210938
141.34034268670868
142.0009816903787
143.27720753779764
145.6097152251486
149.63968392641425
156.21887455084993
166.3673385439779
181.15935935140698
201.58427884817814
228.37178919069407
262.4333070965862
224.2855027653428
194.552367687082
172.28693409498476
156.28067543554786
145.23890186249787
137.92917718566184
133.28331948474448
130.446227821531
128.77977599327133
127.83705032087818
127.32269530613102
127.05166766091511
126.9136962872095
126.84622379837957
126.81583946522089
126.80691593416451
126.8161231931152
126.85219901588825
126.94140056932471
127.14017531437354
127.55715560513072
128.385817260504
129.94614999102703
132.7279112889411
137.42063215119467
144.9097093577437
156.21886664146646
172.3985396259193
194.36827408571688
222.74058658590278
245.50451445893196
209.5574975251209
181.49999749870827
160.4343050499083
145.2388907242961
134.71574058445026
127.72101977709477
123.25738551586748
120.52099904293252
118.90787164249488
117.99229346439905
117.49126786165121
117.2266053914763
117.09168535798533
117.02591244736568
116.99712421580016
116.99094782632862
117.00604995726873
117.05486422778468
117.17039964376589
117.42065040668977
117.9323615664518
118.92469462149948
120.74987305055042
123.9320913276531
129.1895582714554
137.42062861454494
149.6396830035842
166.85870424674675
189.92836571588052
219.3746413810408
233.9713949723023
199.70937894360424
172.8572843848714
152.6050342578789
137.92916784249658
127.72101872770594
120.90811449069382
116.54471289805802
113.86122683775119
112.27491975572447
111.37244667366393
110.87762427245556
110.6158574954498
110.4823851415847
110.41765854043142
110.39034143011686
110.38716864844235
110.40877734787665
110.47123077297445
110.6138854146741
110.91499123735355
111.51637381784717
112.65702830019745
114.71183786049541
118.22622959685266
123.93208748516061
132.72790275609694
145.60970237045407
163.55117942226934
187.3500505841145
217.47634499339316
226.4588222549814
193.40794419552188
167.37324818038215
147.6430365018786
133.28332611593484
123.25739895496334
116.54471189668668
112.2340593764682
109.57721438168564
108.00387187071068
107.10749028271798
106.61546580106423
106.35500963516164
106.22229905638447
106.15838433001778
106.13255943997778
106.13258309552309
106.16096027295075
106.23707742943819
106.40580478052014
106.75376682107616
107.43426467229843
108.70016402530358
110.94052101493122
114.71183584421352
120.74987005112229
129.94615074061832
143.27720778018158
161.68649045613708
185.9366580303691
216.46579226495052
221.77395924038834
189.54450011725274
164.03474602422062
144.62265165046819
130.44623832398196
120.52099373839144
113.8612258781052
109.5772207763206
106.93328470167899
105.36597926656495
104.47233894670607
103.98155243540593
103.72171558344463
103.58949140939191
103.52631641228994
103.50201280008343
103.50526747006766
103.54025071608436
103.62917276860142
103.82131917132324
104.20958735085854
104.95523254344434
106.31983494373695
108.70016563254211
112.65702849577772
118.92469363401355
128.38581603306076
142.0009784747285
160.6932582562351
185.20477872059453
215.9575619335438
218.9729781999178
187.27116713339856
162.08191854405655
142.85463560999602
128.77979378341487
118.90787250057174
112.27492507328792
108.00387042731315
105.36597806383244
103.80139317831585
102.90896112938576
102.4187300809649
102.15922819154925
102.02738714219238
101.96492470143225
101.94211492614019
101.9484468442943
101.98947410227039
102.08962640776245
102.30144485369895
102.72212687292537
103.51791755919865
104.9552313025014
107.43426428953673
111.5163736620771
117.93236121101923
127.55715606017385
141.34032773212277
160.19287656067362
184.84632497289394
215.7157596814891
217.36452006914683
185.9852620637208
160.98253762940058
141.85794384367892
127.83704184989799
117.9922943528483
111.37245292839145
107.10749007981349
104.47234017937171
102.90896095378046
102.01706607913961
101.52711084332493
101.26783886864364
101.1363444422638
101.07456518042358
101.05314996363497
101.06223906008847
101.10845352853555
101.21783381332502
101.44512513553852
101.89020901844235
102.72212809163248
104.20958775183932
106.7537657418732
110.91498962918061
117.42064961593272
127.14017342206957
141.0165248102251
159.95429912698606
184.6802400805353
215.6069821586735
216.47548759907505
185.28465370501777
160.3858544312169
141.31600636181184
127.32268457023996
117.49126983702087
110.8776192188069
106.61546599019425
103.98154942461268
102.41872991094588
101.52711169231267
101.03734297341282
100.7782785801821
100.64712226656889
100.58598358090093
100.56580629309633
100.57722393437139
100.62762075393319
100.74411516208917
100.9828190277043
101.44512605927855
102.30144552896215
103.82131870195455
106.40580719005234
110.61388904181375
117.1704063185593
126.94139665671227
140.8663020595066
159.846746499567
184.60764509334496
215.5612110453807
216.0019722589826
184.91633588246702
160.0731229394019
141.03132898781163
127.05166534052978
117.22661469670857
110.61585545111339
106.3550125110224
103.72171400178696
102.15922891374805
101.26783831367744
100.77827825584154
100.51945794726238
100.38865788045103
100.32811622056064
100.30899566127913
100.32227789018481
100.3758532447186
100.49750423227779
100.74411447355486
101.21783360201125
102.08962738036125
103.6291708228935
106.23707683468486
110.47122964652044
117.05486241006462
126.85219758326498
140.80097765850354
159.80165549181734
184.5786425350548
215.54455022042052
215.75834348889916
184.7291628898378
159.91461016434596
140.88677753436804
126.91369621017526
117.0916764890545
110.48238457538791
106.22229584248284
103.58949031449471
102.02738831687468
101.13634376355066
100.64712222290113
100.38865780493491
100.25828089232085
100.19831964946738
100.18009108829402
100.19480820052058
100.25067514294726
100.37585314700372
100.6276209411977
101.10845343964064
101.98947475174738
103.54025059756583
106.16096239809126
110.40878100827099
117.00604681556074
126.81611875417015
140.77605672304583
159.78598328647848
184.57047001262373
215.54267335184863
215.63713199726365
184.63720082058404
159.83695072664247
140.81602773292184
126.84623611808983
117.02590944759058
110.41766339589968
106.15838326815546
103.52631614533335
101.9649243139578
101.07456511317976
100.58598377402765
100.32811614557964
100.19831972561026
100.13898672222908
100.12154226051891
100.13735174280332
100.19480813524297
100.32227771976379
100.57722370983751
101.06223910054379
101.94844644299334
103.50526563376951
106.132582377735
110.38716710919768
116.99094654652733
126.80691432353741
140.7719616650204
159.7862866975984
184.57501756240723
215.5524126207764
215.578890979819
184.59377900448317
159.80075498633332
140.78350259210066
126.81582695017971
116.99712281697543
110.3903358580892
106.13255929442973
103.50201356975856
101.94211457020641
101.05315004978173
100.56580577352301
100.30899568337023
100.1800909771784
100.12154225989373
100.10486561626941
100.12154229257881
100.18009102447567
100.30899586374895
100.56580601238434
101.05314981556758
101.94211559749799
103.50201275053
106.13256166469624
110.39033907409427
116.99712099763842
126.81583610841273
140.7834955807015
159.80077119504534
184.59374961281705
215.57892586068795
215.55247485900733
184.57501254188873
159.78631160536997
140.77198028193692
126.80691103225293
116.99095434504287
110.38716690236369
106.13258482451397
103.5052655007615
101.9484474824689
101.06223984078355
100.57722369377049
100.32227813663414
100.19480817437889
100.13735177316588
100.1215423145072
100.13898676925105
100.19831958932815
100.32811622554517
100.5859834332501
101.0745645833449
101.96492439973002
103.52631462462531
106.15838325320883
110.41765798082884
117.0259116049875
126.84622333025256
140.81601308096208
159.83697055523604
184.63719266240716
215.6371877788597
215.54275358854176
184.5704536400982
159.78599210007198
140.77604242188943
126.81612036482436
117.00604124134784
110.40877697000845
106.16096360893683
103.54024881979491
101.98947516681076
101.1084530101697
100.62762061117147
100.37585305154916
100.25067507270381
100.19480825193044
100.18009110732034
100.1983196691642
100.25828098350993
100.38865792497354
100.64712208193988
101.13634431224462
102.02738776863173
103.58949164945425
106.2222976987999
110.4823833228473
117.09168303276743
126.91369278897318
140.88679495995046
159.91459680993978
184.7291931425026
215.7584440397277
215.5444962590674
184.57864939185325
159.80166145996503
140.8009601198775
126.8522001122672
117.05485646169761
110.47123001016422
106.23707443836993
103.62917131938535
102.089627925115
101.21783311924334
100.74411498320401
100.49750413262605
100.37585317123498
100.32227787409741
100.30899565032053
100.3281161698623
100.38865796606768
100.51945784844531
100.77827815995728
101.26783871317272
102.1592286857693
103.72171516074684
106.35501107568957
110.61586023321881
117.22661113788388
127.05166281540711
141.03135345188375
160.0731217717112
184.9163695391111
216.0020488541615
215.5611748525813
184.60764509469502
159.8467219887285
140.8663024454087
126.94138792631675
117.17040020546443
110.61389104572184
106.40580443585944
103.82131949378675
102.30144483334301
101.44512549713349
100.982818846668
100.7441150105291
100.627620870925
100.577223964687
100.5658062970585
100.58598362196521
100.64712231931809
100.77827849127081
101.03734324692014
101.52711133593708
102.41873062955287
103.98155040933254
106.61546503973801
110.8776231368546
117.49126653507064
127.32269425750911
141.31598684989453
160.38585318956586
185.28467207991844
216.47551152448352
215.60697006571652
184.68023854684722
159.95427380255344
141.01652797815512
127.14016518653698
117.42065066387369
110.91498617353693
106.75376676025807
104.2095887704997
102.72212729429766
101.89020994399476
101.4451249885755
101.21783367395122
101.1084534694438
101.06223899241702
101.05314996730826
101.07456526637577
101.13634437496239
101.26783882917384
101.52711102785868
102.01706587724172
102.90896152379372
104.47233910473118
107.10749271859366
111.3724495695169
117.9922902845242
127.8370532191531
141.85792870487788
160.9825328411818
185.98526303126866
217.36431221824594
215.71574529359944
184.84629449349418
160.19287863874288
141.34031700310206
127.55714847167422
117.9323649167247
111.51636983110893
107.43426574839728
104.95523025148358
103.5179166497491
102.72212653224896
102.3014445267009
102.0896266115694
101.98947419516968
101.94844685330821
101.94211495179891
101.96492472359446
102.02738708332767
102.159228302971
102.41872982078505
102.90896146101151
103.80139353501946
105.36597719456387
108.00387226085093
112.27492146339009
118.90787615959057
128.7797732645107
142.854623395133
162.08191664478377
187.27117020486727
218.9728290776523
215.95760016751896
185.20477057695436
160.6932804139247
142.0009811897919
128.38582786146233
118.92469583773553
112.65703551723855
108.70017148666217
106.3198371245773
104.95523713822762
104.20958998451823
103.82132162258058
103.62917527110424
103.54025315940633
103.50527015572597
103.50201557716494
103.52631893960196
103.58949398261917
103.721718109742
103.98155454323441
104.47234126782331
105.36598023518583
106.93328723837031
109.57721837524687
113.86122135385857
120.52099703515815
130.44622019706793
144.6226409709877
164.0347514747602
189.54439195973734
221.77391619056812
216.4657862049302
185.93668502792596
161.68649675290058
143.27721256000672
129.94616678886206
120.74987277941152
114.71184466246717
110.94052507295552
108.70016764104508
107.43426870707485
106.75377060885722
106.40580945653798
106.23708202836406
106.16096468524087
106.1325875047159
106.13256379983062
106.15838860475343
106.22230330302492
106.35501352874508
106.61546989733183
107.10749398519583
108.00387462818132
109.57721823890637
112.23405892658283
116.54471514795414
123.25738461219599
133.28331876762084
147.64304493869238
167.37328593560693
193.40791327972627
226.458850063132
217.47632505760342
187.35007968228766
163.5511811108396
145.60971457911813
132.72790218978759
123.93209485913158
118.22623634335909
114.71183971526854
112.65703414101323
111.51637693688927
110.91499408772165
110.61388843499076
110.47123378380321
110.40878099492015
110.38717250313817
110.39034481560797
110.4176620314051
110.48238832959952
110.61586020817694
110.87762709208042
111.37244885903822
112.27492314503385
113.86122765142622
116.54471352501173
120.90812159100176
127.72101418635879
137.92917563546175
152.60506791862127
172.85724622286796
199.70939207039385
233.97148109978477
219.37468045837306
189.92836399861216
166.85869518054164
149.63968998723982
137.4206210504438
129.18956129385376
123.93208925731558
120.74987101263798
118.92469330904433
117.932359960753
117.42065053491882
117.17040015420503
117.0548646400723
117.00605041644516
116.99094812838683
116.997124386457
117.02591232341082
117.09168472440551
117.22660474700994
117.49126670637415
117.99229237847203
118.90787207187441
120.52099788858239
123.25738832664838
127.72101330914187
134.71574348255515
145.23891248442274
160.43435741933
181.4999946036943
209.55752881491932
245.50461241464447
222.74061575858707
194.36824961024607
172.39853077239354
156.21884628707443
144.90970300901589
137.4206272375386
132.72790046557074
129.94614464209565
128.38580823103538
127.55714626842646
127.1401666921008
126.94139246387968
126.85219231027853
126.81611676391424
126.80690858781277
126.81583219712505
126.84621563634828
126.91368700322191
127.05165804622838
127.32268564482632
127.83704228136423
128.77976763401165
130.44622132295126
133.28331854225718
137.92917028336123
145.23890725317113
156.2807031226015
172.28690292404877
194.55236720774485
224.2855357375308
262.4333664967179
228.37178534423722
201.58427951284224
181.15938618475826
166.36735153266747
156.21890199696415
149.6397043824131
145.60973404341755
143.27722563764416
142.00099856234445
141.3403625134662
141.0165465065814
140.86632963963675
140.8010021103108
140.77608445319848
140.77198526171148
140.78352234216567
140.8160512450129
140.88681467291894
141.031365986461
141.31601460737184
141.85795314609402
142.85464596348828
144.62267617811798
147.6430719835985
152.60508864811945
160.43437367709984
172.28693054546073
189.4905612079322
213.42406518318361
245.3416043404387
286.1698667709134
237.2652479291357
212.66042242936695
194.24314265171841
181.15937320747665
172.39857757784415
166.85872190937454
163.55120712587097
161.68652030273316
160.6932668247213
160.19290619326756
159.95431466125902
159.8467701554683
159.80167413041988
159.78600628697654
159.78632754179853
159.80079070971328
159.83699214879186
159.91461767714915
160.07313225508807
160.38587489877293
160.98255361318814
162.08193434493333
164.0347883216128
167.37331122095048
172.85727357302355
181.50000929908046
194.5523833388413
213.42406709956003
239.53305849928176
274.1005970955326
317.9390462657524
250.55158707362938
228.74950916721815
212.66042016833015
201.58429451039018
194.36829730179284
189.9284009039809
187.35005426710381
185.93666745885128
185.20476370602518
184.84635024679213
184.68024871859436
184.60765730785886
184.57867728823547
184.57047941642418
184.57503931338027
184.59377237741325
184.63720859556497
184.72918804746578
184.91635880488306
185.28468630343258
185.98527806041037
187.2711798918201
189.54443918387602
193.40793460000094
199.70940441728285
209.55753696307187
224.285546628897
245.3416155967026
274.10059211171455
311.61363772366644
358.48645929703116
269.64636349777265
250.55157857948413
237.2652978003688
228.3718329497584
222.74060501335802
219.37465152610545
217.47631953952305
216.46574439182504
215.95753154665482
215.71579215327455
215.60700482711613
215.56120504625616
215.54453869760428
215.54269264031055
215.552443956296
215.5789274110025
215.6371594636066
215.75838911782955
216.00202550115895
216.4755230740056
217.36432495049598
218.9728449007
221.77395742692002
226.45884367471152
233.97146626305
245.5045978085069
262.43338449764127
286.1698726086558
317.9390100607807
358.4864288428459
407.09878732206715
