# vtk DataFile Version 2.0
Unstructured Grid Example
ASCII
DATASET UNSTRUCTURED_GRID

POINTS 961 float
0.150000006 -0.00839745998 0
0.146666661 -0.00839745998 0
0.143333331 -0.00839745998 0
0.140000001 -0.00839745998 0
0.13666667 -0.00839745998 0
0.13333334 -0.00839745998 0
0.129999995 -0.00839745998 0
0.126666665 -0.00839745998 0
0.123333335 -0.00839745998 0
0.119999997 -0.00839745998 0
0.116666667 -0.00839745998 0
0.113333337 -0.00839745998 0
0.109999999 -0.00839745998 0
0.106666669 -0.00839745998 0
0.103333332 -0.00839745998 0
0.100000001 -0.00839745998 0
0.0966666639 -0.00839745998 0
0.0933333337 -0.00839745998 0
0.0900000036 -0.00839745998 0
0.086666666 -0.00839745998 0
0.0833333358 -0.00839745998 0
0.0799999982 -0.00839745998 0
0.0766666681 -0.00839745998 0
0.0733333305 -0.00839745998 0
0.0700000003 -0.00839745998 0
0.0666666701 -0.00839745998 0
0.0633333325 -0.00839745998 0
0.0599999987 -0.00839745998 0
0.0566666685 -0.00839745998 0
0.0533333346 -0.00839745998 0
0.0500000007 -0.00839745998 0
0.148333326 -0.0112842107 0
0.144999996 -0.0112842107 0
0.141666666 -0.0112842107 0
0.138333336 -0.0112842107 0
0.135000005 -0.0112842107 0
0.13166666 -0.0112842107 0
0.12833333 -0.0112842107 0
0.125 -0.0112842107 0
0.12166667 -0.0112842107 0
0.118333332 -0.0112842107 0
0.115000002 -0.0112842107 0
0.111666664 -0.0112842107 0
0.108333334 -0.0112842107 0
0.104999997 -0.0112842107 0
0.101666667 -0.0112842107 0
0.0983333364 -0.0112842107 0
0.0949999988 -0.0112842107 0
0.0916666687 -0.0112842107 0
0.088333331 -0.0112842107 0
0.0850000009 -0.0112842107 0
0.0816666633 -0.0112842107 0
0.0783333331 -0.0112842107 0
0.075000003 -0.0112842107 0
0.0716666654 -0.0112842107 0
0.0683333352 -0.0112842107 0
0.0649999976 -0.0112842107 0
0.0616666675 -0.0112842107 0
0.0583333336 -0.0112842107 0
0.0549999997 -0.0112842107 0
0.0516666658 -0.0112842107 0
0.0483333319 -0.0112842107 0
0.146666661 -0.0141709624 0
0.143333331 -0.0141709624 0
0.140000001 -0.0141709624 0
0.13666667 -0.0141709624 0
0.13333334 -0.0141709624 0
0.129999995 -0.0141709624 0
0.126666665 -0.0141709624 0
0.123333335 -0.0141709624 0
0.119999997 -0.0141709624 0
0.116666667 -0.0141709624 0
0.113333337 -0.0141709624 0
0.109999999 -0.0141709624 0
0.106666669 -0.0141709624 0
0.103333332 -0.0141709624 0
0.100000001 -0.0141709624 0
0.0966666639 -0.0141709624 0
0.0933333337 -0.0141709624 0
0.0900000036 -0.0141709624 0
0.086666666 -0.0141709624 0
0.0833333358 -0.0141709624 0
0.0799999982 -0.0141709624 0
0.0766666681 -0.0141709624 0
0.0733333305 -0.0141709624 0
0.0700000003 -0.0141709624 0
0.0666666701 -0.0141709624 0
0.0633333325 -0.0141709624 0
0.0599999987 -0.0141709624 0
0.0566666685 -0.0141709624 0
0.0533333346 -0.0141709624 0
0.0500000007 -0.0141709624 0
0.0466666669 -0.0141709624 0
0.144999996 -0.0170577131 0
0.141666666 -0.0170577131 0
0.138333336 -0.0170577131 0
0.135000005 -0.0170577131 0
0.13166666 -0.0170577131 0
0.12833333 -0.0170577131 0
0.125 -0.0170577131 0
0.12166667 -0.0170577131 0
0.118333332 -0.0170577131 0
0.115000002 -0.0170577131 0
0.111666664 -0.0170577131 0
0.108333334 -0.0170577131 0
0.104999997 -0.0170577131 0
0.101666667 -0.0170577131 0
0.0983333364 -0.0170577131 0
0.0949999988 -0.0170577131 0
0.0916666687 -0.0170577131 0
0.088333331 -0.0170577131 0
0.0850000009 -0.0170577131 0
0.0816666633 -0.0170577131 0
0.0783333331 -0.0170577131 0
0.075000003 -0.0170577131 0
0.0716666654 -0.0170577131 0
0.0683333352 -0.0170577131 0
0.0649999976 -0.0170577131 0
0.0616666675 -0.0170577131 0
0.0583333336 -0.0170577131 0
0.0549999997 -0.0170577131 0
0.0516666658 -0.0170577131 0
0.0483333319 -0.0170577131 0
0.0450000018 -0.0170577131 0
0.143333331 -0.0199444648 0
0.140000001 -0.0199444648 0
0.13666667 -0.0199444648 0
0.13333334 -0.0199444648 0
0.129999995 -0.0199444648 0
0.126666665 -0.0199444648 0
0.123333335 -0.0199444648 0
0.119999997 -0.0199444648 0
0.116666667 -0.0199444648 0
0.113333337 -0.0199444648 0
0.109999999 -0.0199444648 0
0.106666669 -0.0199444648 0
0.103333332 -0.0199444648 0
0.100000001 -0.0199444648 0
0.0966666639 -0.0199444648 0
0.0933333337 -0.0199444648 0
0.0900000036 -0.0199444648 0
0.086666666 -0.0199444648 0
0.0833333358 -0.0199444648 0
0.0799999982 -0.0199444648 0
0.0766666681 -0.0199444648 0
0.0733333305 -0.0199444648 0
0.0700000003 -0.0199444648 0
0.0666666701 -0.0199444648 0
0.0633333325 -0.0199444648 0
0.0599999987 -0.0199444648 0
0.0566666685 -0.0199444648 0
0.0533333346 -0.0199444648 0
0.0500000007 -0.0199444648 0
0.0466666669 -0.0199444648 0
0.043333333 -0.0199444648 0
0.141666666 -0.0228312165 0
0.138333336 -0.0228312165 0
0.135000005 -0.0228312165 0
0.13166666 -0.0228312165 0
0.12833333 -0.0228312165 0
0.125 -0.0228312165 0
0.12166667 -0.0228312165 0
0.118333332 -0.0228312165 0
0.115000002 -0.0228312165 0
0.111666664 -0.0228312165 0
0.108333334 -0.0228312165 0
0.104999997 -0.0228312165 0
0.101666667 -0.0228312165 0
0.0983333364 -0.0228312165 0
0.0949999988 -0.0228312165 0
0.0916666687 -0.0228312165 0
0.088333331 -0.0228312165 0
0.0850000009 -0.0228312165 0
0.0816666633 -0.0228312165 0
0.0783333331 -0.0228312165 0
0.075000003 -0.0228312165 0
0.0716666654 -0.0228312165 0
0.0683333352 -0.0228312165 0
0.0649999976 -0.0228312165 0
0.0616666675 -0.0228312165 0
0.0583333336 -0.0228312165 0
0.0549999997 -0.0228312165 0
0.0516666658 -0.0228312165 0
0.0483333319 -0.0228312165 0
0.0450000018 -0.0228312165 0
0.0416666679 -0.0228312165 0
0.140000001 -0.0257179681 0
0.13666667 -0.0257179681 0
0.13333334 -0.0257179681 0
0.129999995 -0.0257179681 0
0.126666665 -0.0257179681 0
0.123333335 -0.0257179681 0
0.119999997 -0.0257179681 0
0.116666667 -0.0257179681 0
0.113333337 -0.0257179681 0
0.109999999 -0.0257179681 0
0.106666669 -0.0257179681 0
0.103333332 -0.0257179681 0
0.100000001 -0.0257179681 0
0.0966666639 -0.0257179681 0
0.0933333337 -0.0257179681 0
0.0900000036 -0.0257179681 0
0.086666666 -0.0257179681 0
0.0833333358 -0.0257179681 0
0.0799999982 -0.0257179681 0
0.0766666681 -0.0257179681 0
0.0733333305 -0.0257179681 0
0.0700000003 -0.0257179681 0
0.0666666701 -0.0257179681 0
0.0633333325 -0.0257179681 0
0.0599999987 -0.0257179681 0
0.0566666685 -0.0257179681 0
0.0533333346 -0.0257179681 0
0.0500000007 -0.0257179681 0
0.0466666669 -0.0257179681 0
0.043333333 -0.0257179681 0
0.0399999991 -0.0257179681 0
0.138333336 -0.0286047198 0
0.135000005 -0.0286047198 0
0.13166666 -0.0286047198 0
0.12833333 -0.0286047198 0
0.125 -0.0286047198 0
0.12166667 -0.0286047198 0
0.118333332 -0.0286047198 0
0.115000002 -0.0286047198 0
0.111666664 -0.0286047198 0
0.108333334 -0.0286047198 0
0.104999997 -0.0286047198 0
0.101666667 -0.0286047198 0
0.0983333364 -0.0286047198 0
0.0949999988 -0.0286047198 0
0.0916666687 -0.0286047198 0
0.088333331 -0.0286047198 0
0.0850000009 -0.0286047198 0
0.0816666633 -0.0286047198 0
0.0783333331 -0.0286047198 0
0.075000003 -0.0286047198 0
0.0716666654 -0.0286047198 0
0.0683333352 -0.0286047198 0
0.0649999976 -0.0286047198 0
0.0616666675 -0.0286047198 0
0.0583333336 -0.0286047198 0
0.0549999997 -0.0286047198 0
0.0516666658 -0.0286047198 0
0.0483333319 -0.0286047198 0
0.0450000018 -0.0286047198 0
0.0416666679 -0.0286047198 0
0.038333334 -0.0286047198 0
0.13666667 -0.0314914696 0
0.13333334 -0.0314914696 0
0.129999995 -0.0314914696 0
0.126666665 -0.0314914696 0
0.123333335 -0.0314914696 0
0.119999997 -0.0314914696 0
0.116666667 -0.0314914696 0
0.113333337 -0.0314914696 0
0.109999999 -0.0314914696 0
0.106666669 -0.0314914696 0
0.103333332 -0.0314914696 0
0.100000001 -0.0314914696 0
0.0966666639 -0.0314914696 0
0.0933333337 -0.0314914696 0
0.0900000036 -0.0314914696 0
0.086666666 -0.0314914696 0
0.0833333358 -0.0314914696 0
0.0799999982 -0.0314914696 0
0.0766666681 -0.0314914696 0
0.0733333305 -0.0314914696 0
0.0700000003 -0.0314914696 0
0.0666666701 -0.0314914696 0
0.0633333325 -0.0314914696 0
0.0599999987 -0.0314914696 0
0.0566666685 -0.0314914696 0
0.0533333346 -0.0314914696 0
0.0500000007 -0.0314914696 0
0.0466666669 -0.0314914696 0
0.043333333 -0.0314914696 0
0.0399999991 -0.0314914696 0
0.0366666652 -0.0314914696 0
0.135000005 -0.0343782231 0
0.13166666 -0.0343782231 0
0.12833333 -0.0343782231 0
0.125 -0.0343782231 0
0.12166667 -0.0343782231 0
0.118333332 -0.0343782231 0
0.115000002 -0.0343782231 0
0.111666664 -0.0343782231 0
0.108333334 -0.0343782231 0
0.104999997 -0.0343782231 0
0.101666667 -0.0343782231 0
0.0983333364 -0.0343782231 0
0.0949999988 -0.0343782231 0
0.0916666687 -0.0343782231 0
0.088333331 -0.0343782231 0
0.0850000009 -0.0343782231 0
0.0816666633 -0.0343782231 0
0.0783333331 -0.0343782231 0
0.075000003 -0.0343782231 0
0.0716666654 -0.0343782231 0
0.0683333352 -0.0343782231 0
0.0649999976 -0.0343782231 0
0.0616666675 -0.0343782231 0
0.0583333336 -0.0343782231 0
0.0549999997 -0.0343782231 0
0.0516666658 -0.0343782231 0
0.0483333319 -0.0343782231 0
0.0450000018 -0.0343782231 0
0.0416666679 -0.0343782231 0
0.038333334 -0.0343782231 0
0.0350000001 -0.0343782231 0
0.13333334 -0.0372649729 0
0.129999995 -0.0372649729 0
0.126666665 -0.0372649729 0
0.123333335 -0.0372649729 0
0.119999997 -0.0372649729 0
0.116666667 -0.0372649729 0
0.113333337 -0.0372649729 0
0.109999999 -0.0372649729 0
0.106666669 -0.0372649729 0
0.103333332 -0.0372649729 0
0.100000001 -0.0372649729 0
0.0966666639 -0.0372649729 0
0.0933333337 -0.0372649729 0
0.0900000036 -0.0372649729 0
0.086666666 -0.0372649729 0
0.0833333358 -0.0372649729 0
0.0799999982 -0.0372649729 0
0.0766666681 -0.0372649729 0
0.0733333305 -0.0372649729 0
0.0700000003 -0.0372649729 0
0.0666666701 -0.0372649729 0
0.0633333325 -0.0372649729 0
0.0599999987 -0.0372649729 0
0.0566666685 -0.0372649729 0
0.0533333346 -0.0372649729 0
0.0500000007 -0.0372649729 0
0.0466666669 -0.0372649729 0
0.043333333 -0.0372649729 0
0.0399999991 -0.0372649729 0
0.0366666652 -0.0372649729 0
0.0333333351 -0.0372649729 0
0.13166666 -0.0401517227 0
0.12833333 -0.0401517227 0
0.125 -0.0401517227 0
0.12166667 -0.0401517227 0
0.118333332 -0.0401517227 0
0.115000002 -0.0401517227 0
0.111666664 -0.0401517227 0
[...]
POINT_DATA 961
SCALARS Temp float 1
LOOKUP_TABLE default
360.7228808754094
311.03606803764274
271.84742356315564
243.51955652801138
224.37278860825424
212.24105640307582
205.0150828356172
200.95574348094257
198.7967547665291
197.70524712991784
197.17857577500365
196.9350835171609
196.82682385378837
196.78037893024685
196.76109689327774
196.75333708815864
196.7503448616413
196.74937972412826
196.74964289443463
196.75179521280108
196.7590406378759
196.78091247664338
196.8428667257043
197.00761817153307
197.4170096290863
198.36306334693842
200.3872755956139
204.38360795455833
211.64959796577284
223.82291872545866
242.9841519406839
311.0360961483915
264.03329018931436
228.96101609372883
204.34708942507473
188.15397446549687
178.14835581407362
172.32594135607164
169.12416780183574
167.45400899612957
166.62429585652174
166.23019818215278
166.05055029840665
165.97168330131475
165.93823274074546
165.92449020993308
165.91903145124422
165.91700811855648
165.9165894690298
165.91760840932267
165.92175126876012
165.93474305830392
165.97253432215305
166.07586803887577
166.34064074232165
166.97346859665237
168.3779608067815
171.26120953665384
176.7204571926146
186.24076180073718
201.54636096729647
223.82294481454454
271.84735083223586
228.9609845765428
197.51235435064467
175.80957224527404
161.72026391304075
153.10542990960582
148.1324868917492
145.41395588845617
144.0016796341347
143.30192329791402
142.97003857462838
142.81883692550295
142.7524533229995
142.72428453088563
142.71271092222997
142.7081357744749
142.7065380965159
142.70656166932602
142.70862710173606
142.71578384320833
142.7372542196976
142.797510138699
142.9563514748428
143.3482083724846
144.248941072708
146.17031032522826
149.9609404357069
156.86069003095
168.43014055591547
186.2407540930853
211.6496178252276
243.51946182991844
204.34703980358694
175.80956474151154
156.19803199231023
143.48884743232927
135.7157836139839
131.2205828391745
128.75612879631717
127.47129341710584
126.83219385860134
126.5278552881282
126.38865393396478
126.32730690469633
126.3011846669353
126.29042985793572
126.28620941108599
126.28488048105544
126.28543157658086
126.28898876362615
126.30038622312213
126.33327496891654
126.42229299107011
126.64843005271332
127.18565926129479
128.37458024584464
130.81713644093193
135.46255419128454
143.6252049697627
156.86070273989998
176.72046693309335
204.38358019869824
224.37269111664358
188.15392302151162
161.72024100264846
143.48888913489645
131.61807964773993
124.31916211057457
120.07510386731009
117.73599304630132
116.51046678351362
115.89811769086585
115.6053425778485
115.47095469368504
115.41154642324669
115.38618740105981
115.37573971672775
115.3716950964547
115.37063003892543
115.37188429559389
115.37744673312234
115.3943152149854
115.44121037537866
115.56362313942483
115.86348124707621
116.55050357692477
118.01796751097945
120.931968742094
126.30000890180796
135.46254741371328
149.96093346455945
171.2611969972115
200.38725634852275
212.24095956511923
178.14834758148854
153.10544954900178
135.71575490267105
124.31915284526292
117.27025309997745
113.15032197104352
110.86957094303956
109.67017877756653
109.06903294505805
108.78088210871766
108.64833845180436
108.58964580837387
108.56456476926954
108.55424677397926
108.55033738830386
108.54959030254024
108.55174660621032
108.55979403052078
108.58311092051443
108.64563571688515
108.80321294372277
109.17610554488483
110.00240478440867
111.71250886093006
115.01104190815747
120.93196631333669
130.81713562257178
146.170312140078
168.37793267312
198.363051530722
205.015034774361
172.32593575830106
148.13251823628642
131.22055552980927
120.07509672233311
113.15032159564444
109.08839887208757
106.83344609773606
105.64501980018872
105.04835599641409
104.76197519259586
104.63011024053327
104.57167443073324
104.54669758557226
104.53645399018096
104.53268635132112
104.5323280778688
104.53556035506149
104.54643137245739
104.57668747086973
104.65508250709026
104.84626394594495
105.28469594180049
106.22817639670521
108.1295911044906
111.71250626004552
118.01796118659004
128.37457019504205
144.24893557473635
166.9734651585083
197.41702276272537
200.9557287960949
169.12418570173415
145.4139175687235
128.75611374931458
117.7359966773979
110.86957962746015
106.83344572949146
104.58937433954412
103.40535169169503
102.81041129869105
102.52468229120167
102.3930592482191
102.33471511697971
102.3097858885487
102.29960630195077
102.29600006128808
102.29608823498909
102.30050203987713
102.31431046790817
102.35138151333464
102.44445204695168
102.66482740414764
103.15667204058748
104.18968007150708
106.22817523749656
110.00240313288208
116.55050364737875
127.18565919457272
143.34819633729887
166.34062654065676
197.00762276015803
198.79675276640515
167.4540704960719
144.00166208907572
127.47129112623527
116.51047422124364
109.67017572598563
105.64501961631127
103.4053547239023
102.22303628239855
101.62873454626185
101.34323827784876
101.2116999971113
101.15339105034589
101.12849268431569
101.11837910643041
101.11495148218073
101.11551439870414
101.12111983666215
101.13772657461935
101.18091195260986
101.28635858557058
101.52984167000032
102.06133542463589
103.15667285503582
105.28469568981058
109.1761044794945
115.86348028436491
126.64842722947186
142.95635793154165
166.07588121161083
196.84289453723733
197.70536990555686
166.62429508384295
143.30193107885307
126.83220289502538
115.89813193599204
109.06903348684239
105.04835909332267
102.81041082986918
101.62873411726993
101.03466112639543
100.7492469738889
100.6177390622253
100.55944771202401
100.53457681623486
100.52453264651668
100.52128920886695
100.52231743386034
100.52902637945772
100.54807507245557
100.59627881535607
100.71126426547026
100.97145735116393
101.52984110229318
102.66482710056879
104.84626393799059
108.80321287184925
115.56362387656611
126.42228061524553
142.79750025355364
165.97252426969055
196.78091728687426
197.17877994740337
166.23019741653712
142.97004464070207
126.52786441347513
115.60533667566477
108.78088281139243
104.76197903378419
102.52468208529761
101.34323877347272
100.74924692166536
100.4638618642152
100.33236675442743
100.27408849963543
100.24924501680148
100.23927084278839
100.2362035578242
100.23765196045092
100.24530006727869
100.266303891615
100.31828246779381
100.4400029692108
100.71126464638337
101.2863587637404
102.44445152660353
104.65508168275818
108.64563509584802
115.44120870348722
126.33327535589255
142.7372610266213
165.93475387297735
196.7590243749042
196.93506951449646
166.05053003947327
142.8188355212202
126.38866239594036
115.47094690849016
108.64833956636993
104.63010743825303
102.3930593363235
101.21169874960184
100.6177390244697
100.33236698235224
100.20088105935022
100.14261614601519
100.1178008229398
100.10789336030777
100.10498252783937
100.10678108210114
100.11516470122797
100.13760725559516
100.19219423428962
100.31828273815162
100.5962790381616
101.18091175364867
102.35138258885446
104.57668941381421
108.58311536356362
115.39431236321356
126.30038223600576
142.71578483028932
165.9217488210991
196.7517858908831
196.8267697867875
165.97166208772285
142.75245837921102
126.32729073632247
115.41154473782092
108.58965223237072
104.57167327006223
102.33471665416731
101.15339036867971
100.55944796167127
100.27408834818908
100.14261606382186
100.08436898498303
100.05958423190549
100.04973834231461
100.04695792209634
100.04902704955478
100.05794235619231
100.08136035881844
100.13760709235815
100.26630383590033
100.54807539743868
101.13772575371341
102.31431022118225
104.54643079164934
108.5597928137873
115.37744565619124
126.28898706846276
142.70863095737707
165.91758142545777
196.7496563260487
196.78030664275516
165.9382028049353
142.72429105204859
126.30116922034394
115.38618738176436
108.5645593601335
104.54669727691534
102.30978439585282
101.12849224491436
100.53457723365104
100.24924481595244
100.11780079975584
100.05958421544308
100.03483782172006
100.02505075705184
100.02237544053006
100.02464075687838
100.03391276342525
100.05794233525874
100.11516474363684
100.24530003020352
100.52902659972519
101.12111979933383
102.30050308810969
104.53556242372807
108.55174455346734
115.37188096501727
126.28542655670873
142.70656048594714
165.91659316364846
196.74938183757985
196.7610401308477
165.92448222563985
142.71268944894626
126.29042679397827
115.37574939162428
108.55424491668292
104.5364569541989
102.29960575452992
101.1183789959521
100.52453251963811
100.23927081475749
100.10789340885542
100.04973832695767
100.02505076975129
100.01532844365015
100.01274080023438
100.01514378209443
100.0246407446891
100.04902701350153
100.10678102673232
100.23765197820852
100.52231730555472
101.11551364593697
102.29608789050852
104.53232713402423
108.54958944973865
115.37062880665385
126.28487880051091
142.70652266647465
165.9170002591124
196.750315727289
196.7532938931044
165.9190443130104
142.70812316833948
126.28621086463639
115.37168661308345
108.55033647282454
104.53268331764335
102.29599996483475
101.1149518078888
100.52128906660512
100.23620357622224
100.10498240067119
100.04695792453764
100.02237542092936
100.01274079989409
100.01023760580229
100.01274080494834
100.02237542843176
100.04695796435732
100.10498245902572
100.23620350939792
100.52128944147236
101.11495145387072
102.29600113090771
104.53268501722745
108.5503352232441
115.37169279112554
126.28620446864808
142.70813738991274
165.91901481658886
196.7533277904986
196.75037748565722
165.91699640307755
142.70654572932068
126.28489494246494
115.37062648349024
108.54959469023143
104.53232700125693
102.29608901373773
101.11551359031274
100.52231764422343
100.23765219158011
100.10678101769825
100.04902709757415
100.02464075053422
100.01514378673252
100.01274080853302
100.01532845121179
100.02505074522044
100.04973834200547
100.10789332023609
100.23927065935183
100.52453252922838
101.11837836793399
102.29960570154833
104.5364537177799
108.55424620650932
115.37573941639263
126.2904144272044
142.71270621849678
165.9244732928556
196.76109313138016
196.74946253815222
165.91657792950164
142.70656925064037
126.28541541155805
115.3718820607397
108.55174097847747
104.535560039475
102.30050367711165
101.12111902437792
100.52902674111729
100.24529990637194
100.11516465731084
100.05794231792693
100.03391275111389
100.02464076504081
100.022375444553
100.0250507600401
100.03483783866989
100.05958424000663
100.11780076452385
100.24924498097076
100.5345770259322
101.12849278932032
102.30978521501416
104.54669653861205
108.56456331307781
115.38618461698134
126.30118355717892
142.72427797258166
165.9382303099785
196.7804033882658
196.74960432653563
165.91758905150627
142.70863706465906
126.28897242004238
115.37744754010087
108.55978881568282
104.54643086476715
102.31430906693977
101.13772593371166
100.54807559783372
100.26630369422843
100.13760722011953
100.0813603398751
100.05794234259449
100.04902704600885
100.04695791928472
100.04973833494684
100.05958424898938
100.08436896347067
100.14261604200668
100.27408845684914
100.55944788378481
101.15339082901934
102.33471587793504
104.5716759714894
108.58964970156383
115.41154286591703
126.32731016199375
142.75245675948125
165.9716925215271
196.8268430643063
196.7517509938771
165.9217494332443
142.71576290503148
126.30038205134818
115.39430581270055
108.58311117332448
104.5766905657105
102.35138119475984
101.18091209169269
100.59627880840664
100.31828256529373
100.19219419506734
100.13760722197438
100.1151647211274
100.10678109509142
100.10498252922953
100.10789336680071
100.11780083317096
100.14261612621826
100.20088112887909
100.33236687061367
100.61773927479501
101.21169912409896
102.3930588867609
104.63010951895451
108.64833732938644
115.47095410899405
126.38864559373884
142.81883372042694
166.05054660585571
196.93509299522486
196.7590125122128
165.93475239310288
142.73723741799506
126.3332777959033
115.44120239580676
108.64563561580931
104.65507978644504
102.44445201177965
101.28635922356835
100.71126437293476
100.4400032500776
100.31828244400727
100.26630385983272
100.24530004985193
100.23765194064339
100.23620356141282
100.23927087112975
100.24924500231337
100.27408849821789
100.33236679859098
100.46386180602843
100.74924711910553
101.34323829770541
102.5246833835004
104.7619770145544
108.78088011910289
115.60534445574669
126.52785173653531
142.9700399680467
166.2301995177652
197.1785777417779
196.78090225415653
165.97249426895857
142.79750138312934
126.42227164267075
115.56361806053798
108.80321543919712
104.84626172151754
102.66482785859579
101.52984070690506
100.97145702111631
100.7112641705855
100.59627871523628
100.54807510764672
100.5290264370623
100.52231744308389
100.52128921647446
100.52453265686587
100.53457680316222
100.55944773867812
100.61773899517397
100.74924707857178
101.03466123120597
101.62873376932326
102.81041163867735
105.04835696166627
109.06903584426814
115.89811629752236
126.83219275480701
143.3019298459645
166.62430008491663
197.70522904462368
196.84293199905483
166.07587205469775
142.95637749648378
126.64842891268202
115.86348856544429
109.1761057163509
105.28469943607048
103.15667567515582
102.0613363670292
101.52984347699052
101.2863597294434
101.18091297883574
101.13772759795319
101.1211208434979
101.11551551085887
101.11495266342678
101.11838016833647
101.12849379339333
101.15339211710003
101.21170092976281
101.34323926602845
101.62873502650123
102.22303733394926
103.40535328387196
105.64501662491666
109.67017684053215
116.51046010238561
127.47128157452008
144.00166717744744
167.45396912943298
198.79671386234804
197.00761614814607
166.34065166996194
143.34820146404243
127.18566242144104
116.55051532818273
110.00240441865479
106.22818013367745
104.18968222109689
103.15667387534617
102.66482940690882
102.44445389765481
102.35138367251653
102.31431279242729
102.30050422189737
102.29609040534918
102.2960022218655
102.29960841827146
102.30978799341135
102.33471711261545
102.39306129824442
102.52468412274175
102.8104128383396
103.40535356793706
104.58937407010464
106.83344726762753
110.8695694976397
117.73599055621327
128.7561200616316
145.41395018210588
169.12415842980582
200.955755479821
197.4170016517828
166.97349329989072
144.24893678231626
128.37458001071641
118.01796065007007
111.71251096739988
108.12959520133403
106.22817763329815
105.28469892979228
104.8462659287449
104.6550841976039
104.57668918647535
104.54643309393269
104.53556245672455
104.53233038698149
104.53268831086743
104.53645608048618
104.54669947007143
104.57167604956089
104.63011188116728
104.76197662202293
105.0483578557727
105.6450205856615
106.8334468526244
109.08840281687131
113.15031880224687
120.07510267262022
131.2205835985226
148.13248586875895
172.3259487889332
205.0151154740717
198.36309007986574
168.37793114559906
146.17030385879417
130.81714192763536
120.93196054175722
115.01104407298946
111.71250801667196
110.00240385881646
109.17610488117458
108.80321195020869
108.64563557706346
108.58311151155692
108.55979442646948
108.55174698743663
108.54959058191402
108.55033756886186
108.55424679865433
108.56456449639106
108.58964546463288
108.64833763256257
108.78088155324126
109.06903310314725
109.67017837504532
110.8695725329949
113.15031863962547
117.27025574116492
124.3191698995452
135.71579747385667
153.10544952095162
178.1483768132204
212.2410503148557
200.3872868414245
171.26117397707918
149.96092618196226
135.4625309410932
126.30000410977611
120.93196532604522
118.0179601942882
116.55049897504998
115.86347509253741
115.56361642187547
115.44120404280122
115.39430927175603
115.37744187729237
115.37187978407259
115.37062465496979
115.37168996519526
115.37573388589094
115.38618064314818
115.41153932687052
115.47094764475173
115.60533638890578
115.89811175487999
116.51046240140957
117.73599104693916
120.07509918762963
124.31916581770722
131.61810056982645
143.48886618673492
161.72024264961954
188.1539534448791
224.37274532370878
204.38357523514372
176.72046611082087
156.86072706217078
143.62521622697966
135.4625772367706
130.81715448795862
128.37459648586497
127.18567434542872
126.64844381791048
126.4223087969848
126.33329342760076
126.30040516690072
126.28900733640288
126.28544941111586
126.28489835317374
126.28622686272354
126.29044599859249
126.30119960349437
126.32732051832944
126.38866886483251
126.52787242029235
126.8322118004998
127.47131246634946
128.7561446089485
131.22060202307193
135.71581102361884
143.48888733729945
156.19802970044398
175.80956510436945
204.3470545461895
243.51951918759755
211.6495913235
186.24076741052343
168.43014763087962
156.86071606416218
149.9609678066572
146.17032885200248
144.24896045452306
143.348223741422
142.9563655652783
142.79752723754726
142.7372752266304
142.71580642407594
142.7086480023376
142.70658141529242
142.70655946501284
142.7081551029056
142.7127261308159
142.7242971006152
142.75246631398144
142.8188538335329
142.97005912483996
143.3019465085813
144.00170225998377
145.41397514199573
148.13251114063286
153.1054620129202
161.72025621409094
175.80956976173692
197.51235576883397
228.96100404117215
271.84744005686326
223.8229160393641
201.54636293089933
186.24076677472698
176.72048238732359
171.26122172352146
168.3779672831268
166.97346982879685
166.3406358842067
166.07586684884424
165.97254958385417
165.93476261463852
165.92176090702722
165.91761491472107
165.91660207059363
165.91702153895648
165.91903724518517
165.92448901542792
165.93822587631425
165.97168307041858
166.05056176338775
166.23021484394567
166.624309014381
167.4540168316721
169.124180481724
172.32596103200117
178.14838317293092
188.15396130165354
204.34706944644154
228.96100073494512
264.0332974975548
311.0360741104078
242.98410635866026
223.8229088452194
211.64964246784604
204.38362324183234
200.3872752831179
198.3630614319834
197.41699820285172
197.0075759515689
196.8428654199067
196.78095021791992
196.75904682555088
196.75177976601026
196.7496448190107
196.74940082155544
196.7503468853666
196.75332967962655
196.761065923105
196.78035011211838
196.82682114727953
196.93510541700303
197.17859094552495
197.70524298831162
198.79675622563062
200.95575072192824
205.0151014217851
212.24103628560286
224.37275977893796
243.5195277980301
271.84740548336936
311.03604364372046
360.7225191933938
