# vtk DataFile Version 2.0
Unstructured Grid Example
ASCII
DATASET UNSTRUCTURED_GRID

POINTS 961 float
0.150000006 -0.00839745998 0
0.146666661 -0.00839745998 0
0.143333331 -0.00839745998 0
0.140000001 -0.00839745998 0
0.13666667 -0.00839745998 0
0.13333334 -0.00839745998 0
0.129999995 -0.00839745998 0
0.126666665 -0.00839745998 0
0.123333335 -0.00839745998 0
0.119999997 -0.00839745998 0
0.116666667 -0.00839745998 0
0.113333337 -0.00839745998 0
0.109999999 -0.00839745998 0
0.106666669 -0.00839745998 0
0.103333332 -0.00839745998 0
0.100000001 -0.00839745998 0
0.0966666639 -0.00839745998 0
0.0933333337 -0.00839745998 0
0.0900000036 -0.00839745998 0
0.086666666 -0.00839745998 0
0.0833333358 -0.00839745998 0
0.0799999982 -0.00839745998 0
0.0766666681 -0.00839745998 0
0.0733333305 -0.00839745998 0
0.0700000003 -0.00839745998 0
0.0666666701 -0.00839745998 0
0.0633333325 -0.00839745998 0
0.0599999987 -0.00839745998 0
0.0566666685 -0.00839745998 0
0.0533333346 -0.00839745998 0
0.0500000007 -0.00839745998 0
0.148333326 -0.0112842107 0
0.144999996 -0.0112842107 0
0.141666666 -0.0112842107 0
0.138333336 -0.0112842107 0
0.135000005 -0.0112842107 0
0.13166666 -0.0112842107 0
0.12833333 -0.0112842107 0
0.125 -0.0112842107 0
0.12166667 -0.0112842107 0
0.118333332 -0.0112842107 0
0.115000002 -0.0112842107 0
0.111666664 -0.0112842107 0
0.108333334 -0.0112842107 0
0.104999997 -0.0112842107 0
0.101666667 -0.0112842107 0
0.0983333364 -0.0112842107 0
0.0949999988 -0.0112842107 0
0.0916666687 -0.0112842107 0
0.088333331 -0.0112842107 0
0.0850000009 -0.0112842107 0
0.0816666633 -0.0112842107 0
0.0783333331 -0.0112842107 0
0.075000003 -0.0112842107 0
0.0716666654 -0.0112842107 0
0.0683333352 -0.0112842107 0
0.0649999976 -0.0112842107 0
0.0616666675 -0.0112842107 0
0.0583333336 -0.0112842107 0
0.0549999997 -0.0112842107 0
0.0516666658 -0.0112842107 0
0.0483333319 -0.0112842107 0
0.146666661 -0.0141709624 0
0.143333331 -0.0141709624 0
0.140000001 -0.0141709624 0
0.13666667 -0.0141709624 0
0.13333334 -0.0141709624 0
0.129999995 -0.0141709624 0
0.126666665 -0.0141709624 0
0.123333335 -0.0141709624 0
0.119999997 -0.0141709624 0
0.116666667 -0.0141709624 0
0.113333337 -0.0141709624 0
0.109999999 -0.0141709624 0
0.106666669 -0.0141709624 0
0.103333332 -0.0141709624 0
0.100000001 -0.0141709624 0
0.0966666639 -0.0141709624 0
0.0933333337 -0.0141709624 0
0.0900000036 -0.0141709624 0
0.086666666 -0.0141709624 0
0.0833333358 -0.0141709624 0
0.0799999982 -0.0141709624 0
0.0766666681 -0.0141709624 0
0.0733333305 -0.0141709624 0
0.0700000003 -0.0141709624 0
0.0666666701 -0.0141709624 0
0.0633333325 -0.0141709624 0
0.0599999987 -0.0141709624 0
0.0566666685 -0.0141709624 0
0.0533333346 -0.0141709624 0
0.0500000007 -0.0141709624 0
0.0466666669 -0.0141709624 0
0.144999996 -0.0170577131 0
0.141666666 -0.0170577131 0
0.138333336 -0.0170577131 0
0.135000005 -0.0170577131 0
0.13166666 -0.0170577131 0
0.12833333 -0.0170577131 0
0.125 -0.0170577131 0
0.12166667 -0.0170577131 0
0.118333332 -0.0170577131 0
0.115000002 -0.0170577131 0
0.111666664 -0.0170577131 0
0.108333334 -0.0170577131 0
0.104999997 -0.0170577131 0
0.101666667 -0.0170577131 0
0.0983333364 -0.0170577131 0
0.0949999988 -0.0170577131 0
0.0916666687 -0.0170577131 0
0.088333331 -0.0170577131 0
0.0850000009 -0.0170577131 0
0.0816666633 -0.0170577131 0
0.0783333331 -0.0170577131 0
0.075000003 -0.0170577131 0
0.0716666654 -0.0170577131 0
0.0683333352 -0.0170577131 0
0.0649999976 -0.0170577131 0
0.0616666675 -0.0170577131 0
0.0583333336 -0.0170577131 0
0.0549999997 -0.0170577131 0
0.0516666658 -0.0170577131 0
0.0483333319 -0.0170577131 0
0.0450000018 -0.0170577131 0
0.143333331 -0.0199444648 0
0.140000001 -0.0199444648 0
0.13666667 -0.0199444648 0
0.13333334 -0.0199444648 0
0.129999995 -0.0199444648 0
0.126666665 -0.0199444648 0
0.123333335 -0.0199444648 0
0.119999997 -0.0199444648 0
0.116666667 -0.0199444648 0
0.113333337 -0.0199444648 0
0.109999999 -0.0199444648 0
0.106666669 -0.0199444648 0
0.103333332 -0.0199444648 0
0.100000001 -0.0199444648 0
0.0966666639 -0.0199444648 0
0.0933333337 -0.0199444648 0
0.0900000036 -0.0199444648 0
0.086666666 -0.0199444648 0
0.0833333358 -0.0199444648 0
0.0799999982 -0.0199444648 0
0.0766666681 -0.0199444648 0
0.0733333305 -0.0199444648 0
0.0700000003 -0.0199444648 0
0.0666666701 -0.0199444648 0
0.0633333325 -0.0199444648 0
0.0599999987 -0.0199444648 0
0.0566666685 -0.0199444648 0
0.0533333346 -0.0199444648 0
0.0500000007 -0.0199444648 0
0.0466666669 -0.0199444648 0
0.043333333 -0.0199444648 0
0.141666666 -0.0228312165 0
0.138333336 -0.0228312165 0
0.135000005 -0.0228312165 0
0.13166666 -0.0228312165 0
0.12833333 -0.0228312165 0
0.125 -0.0228312165 0
0.12166667 -0.0228312165 0
0.118333332 -0.0228312165 0
0.115000002 -0.0228312165 0
0.111666664 -0.0228312165 0
0.108333334 -0.0228312165 0
0.104999997 -0.0228312165 0
0.101666667 -0.0228312165 0
0.0983333364 -0.0228312165 0
0.0949999988 -0.0228312165 0
0.0916666687 -0.0228312165 0
0.088333331 -0.0228312165 0
0.0850000009 -0.0228312165 0
0.0816666633 -0.0228312165 0
0.0783333331 -0.0228312165 0
0.075000003 -0.0228312165 0
0.0716666654 -0.0228312165 0
0.0683333352 -0.0228312165 0
0.0649999976 -0.0228312165 0
0.0616666675 -0.0228312165 0
0.0583333336 -0.0228312165 0
0.0549999997 -0.0228312165 0
0.0516666658 -0.0228312165 0
0.0483333319 -0.0228312165 0
0.0450000018 -0.0228312165 0
0.0416666679 -0.0228312165 0
0.140000001 -0.0257179681 0
0.13666667 -0.0257179681 0
0.13333334 -0.0257179681 0
0.129999995 -0.0257179681 0
0.126666665 -0.0257179681 0
0.123333335 -0.0257179681 0
0.119999997 -0.0257179681 0
0.116666667 -0.0257179681 0
0.113333337 -0.0257179681 0
0.109999999 -0.0257179681 0
0.106666669 -0.0257179681 0
0.103333332 -0.0257179681 0
0.100000001 -0.0257179681 0
0.0966666639 -0.0257179681 0
0.0933333337 -0.0257179681 0
0.0900000036 -0.0257179681 0
0.086666666 -0.0257179681 0
0.0833333358 -0.0257179681 0
0.0799999982 -0.0257179681 0
0.0766666681 -0.0257179681 0
0.0733333305 -0.0257179681 0
0.0700000003 -0.0257179681 0
0.0666666701 -0.0257179681 0
0.0633333325 -0.0257179681 0
0.0599999987 -0.0257179681 0
0.0566666685 -0.0257179681 0
0.0533333346 -0.0257179681 0
0.0500000007 -0.0257179681 0
0.0466666669 -0.0257179681 0
0.043333333 -0.0257179681 0
0.0399999991 -0.0257179681 0
0.138333336 -0.0286047198 0
0.135000005 -0.0286047198 0
0.13166666 -0.0286047198 0
0.12833333 -0.0286047198 0
0.125 -0.0286047198 0
0.12166667 -0.0286047198 0
0.118333332 -0.0286047198 0
0.115000002 -0.0286047198 0
0.111666664 -0.0286047198 0
0.108333334 -0.0286047198 0
0.104999997 -0.0286047198 0
0.101666667 -0.0286047198 0
0.0983333364 -0.0286047198 0
0.0949999988 -0.0286047198 0
0.0916666687 -0.0286047198 0
0.088333331 -0.0286047198 0
0.0850000009 -0.0286047198 0
0.0816666633 -0.0286047198 0
0.0783333331 -0.0286047198 0
0.075000003 -0.0286047198 0
0.0716666654 -0.0286047198 0
0.0683333352 -0.0286047198 0
0.0649999976 -0.0286047198 0
0.0616666675 -0.0286047198 0
0.0583333336 -0.0286047198 0
0.0549999997 -0.0286047198 0
0.0516666658 -0.0286047198 0
0.0483333319 -0.0286047198 0
0.0450000018 -0.0286047198 0
0.0416666679 -0.0286047198 0
0.038333334 -0.0286047198 0
0.13666667 -0.0314914696 0
0.13333334 -0.0314914696 0
0.129999995 -0.0314914696 0
0.126666665 -0.0314914696 0
0.123333335 -0.0314914696 0
0.119999997 -0.0314914696 0
0.116666667 -0.0314914696 0
0.113333337 -0.0314914696 0
0.109999999 -0.0314914696 0
0.106666669 -0.0314914696 0
0.103333332 -0.0314914696 0
0.100000001 -0.0314914696 0
0.0966666639 -0.0314914696 0
0.0933333337 -0.0314914696 0
0.0900000036 -0.0314914696 0
0.086666666 -0.0314914696 0
0.0833333358 -0.0314914696 0
0.0799999982 -0.0314914696 0
0.0766666681 -0.0314914696 0
0.0733333305 -0.0314914696 0
0.0700000003 -0.0314914696 0
0.0666666701 -0.0314914696 0
0.0633333325 -0.0314914696 0
0.0599999987 -0.0314914696 0
0.0566666685 -0.0314914696 0
0.0533333346 -0.0314914696 0
0.0500000007 -0.0314914696 0
0.0466666669 -0.0314914696 0
0.043333333 -0.0314914696 0
0.0399999991 -0.0314914696 0
0.0366666652 -0.0314914696 0
0.135000005 -0.0343782231 0
0.13166666 -0.0343782231 0
0.12833333 -0.0343782231 0
0.125 -0.0343782231 0
0.12166667 -0.0343782231 0
0.118333332 -0.0343782231 0
0.115000002 -0.0343782231 0
0.111666664 -0.0343782231 0
0.108333334 -0.0343782231 0
0.104999997 -0.0343782231 0
0.101666667 -0.0343782231 0
0.0983333364 -0.0343782231 0
0.0949999988 -0.0343782231 0
0.0916666687 -0.0343782231 0
0.088333331 -0.0343782231 0
0.0850000009 -0.0343782231 0
0.0816666633 -0.0343782231 0
0.0783333331 -0.0343782231 0
0.075000003 -0.0343782231 0
0.0716666654 -0.0343782231 0
0.0683333352 -0.0343782231 0
0.0649999976 -0.0343782231 0
0.0616666675 -0.0343782231 0
0.0583333336 -0.0343782231 0
0.0549999997 -0.0343782231 0
0.0516666658 -0.0343782231 0
0.0483333319 -0.0343782231 0
0.0450000018 -0.0343782231 0
0.0416666679 -0.0343782231 0
0.038333334 -0.0343782231 0
0.0350000001 -0.0343782231 0
0.13333334 -0.0372649729 0
0.129999995 -0.0372649729 0
0.126666665 -0.0372649729 0
0.123333335 -0.0372649729 0
0.119999997 -0.0372649729 0
0.116666667 -0.0372649729 0
0.113333337 -0.0372649729 0
0.109999999 -0.0372649729 0
0.106666669 -0.0372649729 0
0.103333332 -0.0372649729 0
0.100000001 -0.0372649729 0
0.0966666639 -0.0372649729 0
0.0933333337 -0.0372649729 0
0.0900000036 -0.0372649729 0
0.086666666 -0.0372649729 0
0.0833333358 -0.0372649729 0
0.0799999982 -0.0372649729 0
0.0766666681 -0.0372649729 0
0.0733333305 -0.0372649729 0
0.0700000003 -0.0372649729 0
0.0666666701 -0.0372649729 0
0.0633333325 -0.0372649729 0
0.0599999987 -0.0372649729 0
0.0566666685 -0.0372649729 0
0.0533333346 -0.0372649729 0
0.0500000007 -0.0372649729 0
0.0466666669 -0.0372649729 0
0.043333333 -0.0372649729 0
0.0399999991 -0.0372649729 0
0.0366666652 -0.0372649729 0
0.0333333351 -0.0372649729 0
0.13166666 -0.0401517227 0
0.12833333 -0.0401517227 0
0.125 -0.0401517227 0
0.12166667 -0.0401517227 0
0.118333332 -0.0401517227 0
0.115000002 -0.0401517227 0
0.111666664 -0.0401517227 0
[...]
POINT_DATA 961
SCALARS Temp float 1
LOOKUP_TABLE default
422.7340876109926
374.631858214963
333.91574358895446
301.341037475245
276.36434042815836
257.99596347683206
245.03364047291382
236.25115473915685
230.5332671705925
226.95239293808453
224.79261290013844
223.53631285644866
222.83053362287166
222.44706446701557
222.24541209716054
222.14307026169936
222.0940752930856
222.07506949196613
222.07765697647747
222.10615072878687
222.1807128483121
222.34675884636843
222.69212225928496
223.37313360515017
224.64870816339135
226.91766991141782
230.74908928775324
236.89127889190547
246.24661969251574
259.81408733038097
278.8491642095443
374.6318833922817
328.00789221207725
290.0020077740029
260.1886016039458
237.7461544423473
221.53187486471438
210.28472949244704
202.78957751181608
197.98681303155522
195.0243622624653
193.26317483368908
192.25262416700053
191.69220049686044
191.3914557047635
191.23532552572198
191.15755654827456
191.12233140291
191.11302309044234
191.12691096017818
191.1753598263398
191.28987038655512
191.53525484836481
192.03142289511104
192.9841565410473
194.72230821337627
197.7339653142465
202.68865684253723
210.43011124187646
221.92749903936632
238.1919068440972
259.8141139251685
333.9156657753387
290.0019714251701
254.69926628080594
227.39283441202852
207.08977445236889
192.58209664546771
182.61709546000657
176.03362984607352
171.8467719432387
169.28095943839034
167.76396461538226
166.89755107836126
166.41893010854335
166.16299723792503
166.03078874929756
165.96592523065172
165.93878723164977
165.9373693172345
165.96394904267538
166.03746078585476
166.20232536111868
166.54513679348813
167.22033662958114
168.4841414442142
170.7322027431453
174.53104918043041
180.6284313556494
189.92605636920499
203.400553788655
221.92749131827847
246.2466410924777
301.34093138891194
260.18854159845995
227.39282331077808
202.21779838683682
183.61446782810978
170.3840174419071
161.32708656098083
155.35684005423573
151.56454363363756
149.24132624498654
147.86725291645965
147.08175069538845
146.64728235883194
146.41472773252104
146.29480470864573
146.23696633173537
146.21550109969513
146.22199828997495
146.26365770409964
146.36763130003163
146.59237520626206
147.04730601989465
147.9212386189905
149.51759003511415
152.2899367390691
156.86608166223817
164.04488809716514
174.74965350852358
189.92607112441834
210.43012119554822
236.89125038125746
276.3642255535423
237.7460892245266
207.0897416313966
183.6145307290997
166.28621563398926
153.96143939670657
145.51557440483117
139.93807689033812
136.38693936531936
134.20553387234446
132.9115451843389
132.16960054651096
131.75805416009703
131.53733251622214
131.42374828207986
131.37020766751004
131.3536908705669
131.36896009255642
131.42824862185068
131.5673257915392
131.85895441457143
132.4347290798022
133.51498701141617
135.44351924820864
138.71918235254367
144.01168856992504
152.1462809040543
164.0448799058558
180.628422983533
202.68864444425463
230.74906900769076
257.9958460587855
221.5318764806966
192.5821302505425
170.38398315043088
153.96142769561916
142.246885347969
134.1927143280653
128.8553339352542
125.44513313142694
123.34312363687772
122.09219055932796
121.37279026731207
120.97274418994314
120.75792685520776
120.6478225938195
120.59747595146499
120.58595537845609
120.61103236209543
120.69000585027405
120.86717992825355
121.22889759693112
121.92668468569603
123.20743907439842
125.44637338251671
129.17396996571995
135.08439207249828
144.0116846908469
156.86608073866984
174.53105073458278
197.73393491717445
226.91765959105498
245.03359718938066
210.28473065332238
182.61713764522491
161.32705379047025
145.515564210165
134.1927129319045
126.37826672321783
121.18134939458382
117.85009107194108
115.79075865005264
114.562083390741
113.85394207126612
113.4595241527597
113.24771230569193
113.13980921506237
113.09231049876784
113.0860737434492
113.12174649969495
113.22149494877048
113.43753386131165
113.86816356853353
114.68143279279101
116.14473688826894
118.65540328764567
122.76336293444032
129.1739657455894
138.71917315767215
152.28992303668096
170.73219830538545
194.72230513372816
224.64872076430274
236.2511442614505
202.78960239563426
176.033585850132
155.3568198685932
139.9380845530054
128.8553489524709
121.181348086463
116.06321108383567
112.77442281019758
110.73717057479979
109.51959261043312
108.81691019915596
108.42523295406411
108.21508376404051
108.10886012120427
108.06415161024813
108.06341553657089
108.10996578329612
108.23036814324608
108.48366437923951
108.97790293225266
109.89373968467581
111.51298711704311
114.24687888919058
118.65540096307475
125.44636987896796
135.4435202924798
149.51759039292295
168.48412750930007
192.9841415931952
223.37313798122372
230.53327136162326
197.9868819527976
171.8467571446466
151.56454320945724
136.38695079674773
125.44512692546967
117.85008971105604
112.77443060338553
109.50765254064095
107.4814198749436
106.26920532547518
105.56912229288874
105.17882779074597
104.96975161324956
104.86500784374671
104.82307598586819
104.82782964138964
104.88493008970515
105.02466293599473
105.31154019063973
105.86095000971547
106.86236750897116
108.60676324895765
111.5129890285434
116.14473735290323
123.20743820406521
133.51498573532078
147.92123528795145
167.22034345222406
192.0314373234614
222.69215084247662
226.9525265598111
195.02436488263913
169.28096855698308
149.2413370596985
134.20555243365789
123.34312460737351
115.79076474564135
110.73716864944848
107.48141829418736
105.46051547873375
104.25084157118775
103.55201133190855
103.16249446351814
102.95424443534078
102.85088894817363
102.81164843315203
102.8216036454037
102.88835764620623
103.04512618156755
103.36048391991957
103.9549101139281
105.02349608098062
106.86236599834075
109.8937393013038
114.68143255512433
121.92668417503197
132.4347293240971
147.04729036852115
166.5451257815634
191.53524435583967
222.34676447612
224.7928247846665
193.2631758302811
167.7639705191307
147.8672650734752
132.911535926151
122.09219148320979
114.56209043209071
109.51959246921383
106.26920690522724
104.25084132711088
103.04238231728303
102.34421067884621
101.95522622778157
101.74770357424346
101.64566082626693
101.60892298136287
101.62354633118092
101.69863697938439
101.86955621228421
102.20766715987894
102.83668461278602
103.95491176791703
105.8609505020588
108.97790162529444
113.86816163397933
121.22889680039992
131.85895248891566
146.59237531364212
166.20233313098214
191.28988155195626
222.18069666827338
223.53629906646688
192.25260317205144
166.8975493025887
147.0817606940464
132.16958889818355
121.37279265119278
113.85393623961933
108.81691044530501
105.56911850854537
103.55201108174076
102.34421189300997
101.64648777207428
101.25796971797855
101.05114495485508
100.95033038828298
100.915823457791
100.93442195624031
101.0163175972229
101.19832988985858
101.55358636902955
102.20766844068606
103.36048482940465
105.31153959640133
108.48366737656599
113.43753814003301
120.86718733859945
131.5673215546039
146.36762615827746
166.03746216948286
191.175357862381
222.10614134032582
222.83047674857585
191.69217608203923
166.41893480435965
146.64726085485927
131.7580516752796
120.97275440321731
113.4595217659264
108.42523629315862
105.17882583516982
103.16249542359691
101.95522544029127
101.25796924684754
100.86997655862812
100.66387968286318
100.56421673983537
100.53163681048538
100.5534669001639
100.6406312540499
100.83086813557792
101.19832887410567
101.86955590654928
103.04512748896364
105.02466049973945
108.23036739649146
113.22149360843055
120.69000381492816
131.4282470876267
146.2636556841333
165.9639536288163
191.126883044624
222.07767048674137
222.446988040109
191.3914224843371
166.16300343035792
146.41470744934938
131.53733242035887
120.75791677024226
113.24771166686484
108.21507985348423
104.96975022757573
102.95424597536264
101.7477026295251
101.05114491692173
100.6638795693088
100.45863250514743
100.36009698555955
100.32917277125433
100.35354535498405
100.44460513064746
100.64063110537388
101.01631787814438
101.69863687435259
102.88835851515258
104.88492993036749
108.1099683290606
113.12175074959411
120.61102886932478
131.3689553230716
146.22199199139172
165.9373683567037
191.11302641282666
222.07507074127827
222.2453520734294
191.23531523191156
166.03076284459436
146.29480007128322
131.4237613579737
120.64781919526162
113.13981470521132
108.10885884334667
104.86500749444873
102.85088842730141
101.64566074418175
100.95033066869709
100.56421662356048
100.36009711018761
100.2627765664648
100.233333382724
100.25969585968038
100.35354525195427
100.55346664077204
100.93442162924255
101.62354638036622
102.82160310223001
104.82782732508323
108.06341467359849
113.08607200604814
120.58595396101408
131.35368915172668
146.21549905279608
165.93876899494737
191.1223228074495
222.09404513768803
222.14302495020726
191.15756807151644
165.9659097203265
146.2369673502139
131.370193843557
120.59747437529518
113.0923039688329
108.06415145115562
104.82307695076237
102.81164798248999
101.60892311123185
100.91582270020947
100.53163685025638
100.32917259316314
100.2333333823997
100.20534803537564
100.23333343680513
100.32917267100589
100.53163712166209
100.91582304991597
101.60892278357626
102.81164932446322
104.82307593452316
108.06415430570107
113.09230776817367
120.5974723924608
131.37020398982344
146.23696024680345
165.96592653338055
191.15753882330068
222.1430601379996
222.09410734027458
191.1223173771346
165.9387942816181
146.21551827920445
131.35368552986972
120.58596257425846
113.0860717675805
108.0634176660229
104.8278271577869
102.82160450236115
101.62354741443173
100.93442161501243
100.55346728539256
100.3535453174062
100.25969591038766
100.23333347273248
100.26277664400516
100.36009689273358
100.56421675124871
100.95033018265936
101.64566001526003
102.8508885731155
104.86500559173177
108.10885887853385
113.1398085576719
120.64782169362935
131.4237478010562
146.29478484271178
166.0307835749089
191.2353073547635
222.2454086294249
222.07515069395663
191.11300967653557
165.93737710335012
146.2219767440874
131.36895708519984
120.61102261957485
113.12174612556471
108.10996978498665
104.88492772327326
102.88835906811607
101.69863627578238
101.01631740588213
100.64063095447318
100.44460501783801
100.35354543960858
100.32917280006349
100.36009701835519
100.45863264933321
100.66387975435563
101.05114471173793
101.74770338670763
102.95424526923847
104.96975191909941
108.21508215207281
113.24771023754694
120.75792421904893
131.53732881624617
146.4147257415933
166.16298999500648
191.39145341463356
222.44708952956105
222.07761599924592
191.1268896342398
165.96395951834089
146.26363733744842
131.42824980678768
120.6899972346907
113.22149409974888
108.2303645017291
105.02466114736129
103.04512819836232
101.86955523754322
101.1983296137926
100.83086797943722
100.64063113759556
100.553466875287
100.53163679490092
100.56421665339911
100.66387981612094
100.86997640894275
101.25796910355398
101.95522600705593
103.1624951208919
105.17882731411777
108.42523461500244
113.45952730595764
120.9727505199648
131.7580489283342
146.64728674874326
166.41893369898528
191.69221052077458
222.83055415658546
222.10610483485812
191.1753576845813
166.03743698732814
146.3676267284153
131.56731217277712
120.867180617665
113.43754044668283
108.48366409802482
105.31154058740026
103.36048389804648
102.20766767307535
101.55358609687931
101.19832966194114
101.01631778492518
100.93442198991826
100.91582346186622
100.95033045564021
101.05114503870078
101.25796958309503
101.64648816849592
102.34421140808531
103.55201203216174
105.56911977775796
108.81690928754746
113.85394084679758
121.37278898636994
132.16959931777586
147.08174038700588
166.89754818544358
192.2526219957359
223.53632290498862
222.18068451536126
191.28988000423828
166.20230740202032
146.59237868684932
131.85894368884175
121.22889803844262
113.8681576079898
108.97790285946319
105.8609517513565
103.95491071111353
102.83668588272987
102.20766692861362
101.86955600275444
101.69863689344118
101.6235462357148
101.60892297991951
101.6456609433158
101.74770346956262
101.95522615601162
102.34421095248653
103.0423820360556
104.25084208391132
106.26920557502206
109.51959564025724
114.56208659878676
122.09218694914439
132.9115484491375
147.86724923100124
167.76396574689053
193.26317653118053
224.79261522723823
222.34675026858855
191.53521381797538
166.5451281163542
147.04727915693925
132.4347212177688
121.9266882277553
114.68142815323978
109.89374102398796
106.86236464070177
105.02349489465742
103.95490963329559
103.3604834677246
103.04512649955406
102.88835773675885
102.82160364496794
102.81164846827468
102.85088897714938
102.95424434180518
103.16249463218386
103.55201095961112
104.25084202604123
105.46051597344282
107.48141718778993
110.73717091845342
115.79076060973358
123.343128719466
134.2055304609675
149.24132432793326
169.28096662988568
195.02436767350406
226.95237532453288
222.6921892644271
192.03142956103548
167.22036635251754
147.92123840677783
133.51499872900106
123.20744080207974
116.14474561260967
111.51299608914391
108.60676595470376
106.86237337451256
105.86095327679199
105.31154326193695
105.02466609423107
104.88493317018319
104.82783302727448
104.823079455988
104.86501100095492
104.9697548022919
105.17883095804277
105.56912488048452
106.26920823207314
107.48142102525527
109.50765574536713
112.77442791249497
117.8500847686612
125.4451312404211
136.38693171914065
151.56453262149165
171.84676325622098
197.98677236225097
230.5332277347268
223.3731321446728
192.9841691065612
168.4841342322761
149.5175957286746
135.44353770562668
125.44637315927653
118.65541119433719
114.24688364800485
111.51299141590134
109.89374450524585
108.97790748546592
108.48367013455542
108.23037362459748
108.10997106957996
108.06342083075235
108.06415683612778
108.10886523161568
108.21508886065848
108.4252375528141
108.81691510192786
109.51959705676796
110.73717373974173
112.77442748195033
116.06321057916603
121.18135208003883
128.85533339601912
139.9380771166324
155.35682937081052
176.03362569846533
202.78957093936177
236.2511729932165
224.64870124705638
194.72233444597717
170.73220017261784
152.2899359164135
138.71917259111677
129.17397397558238
122.76337056036942
118.65540531694215
116.14474385173534
114.68143626449627
113.86816680158233
113.43753733733004
113.22149841407138
113.12175070932375
113.08607812528504
113.09231437555323
113.1398131774805
113.2477159592776
113.4595272289736
113.85394532640466
114.56208577075759
115.79076263249151
117.85009179861207
121.18134988259538
126.37827503814916
134.19270781895537
145.51557269537562
161.32708935341563
182.6170979098311
210.2847440350583
245.03368521099077
226.9176987408806
197.7339331580722
174.53104145502445
156.86608782983723
144.01167657160502
135.08439532255406
129.17396741026707
125.44637090343386
123.20743747738334
121.92668283289548
121.22889790078091
120.86718035644043
120.69000622175264
120.61103281282487
120.58595565696005
120.59747608411976
120.64782241230326
120.75792606923616
120.97274346209706
121.37278903556592
122.09218923906673
123.3431242291253
125.44513161076623
128.85533720398752
134.1927066229231
142.24688824120295
153.9614509094817
170.38403856055746
192.5821264832263
221.53190843477327
257.99594624641026
230.74909770393174
202.6886195652853
180.62841362222088
164.04485842964633
152.1462740653659
144.01168316529728
138.71917037025605
135.44351379378617
133.51497700645643
132.43471886925877
131.85894504724249
131.56731698787206
131.42824134464266
131.36895302199397
131.35368288445224
131.3701997058719
131.4237394014857
131.53732245129947
131.75804381832165
132.16959005381764
132.91153669162122
134.20552468357383
136.3869321056167
139.93807653112134
145.51556664549537
153.96144531181548
166.28624546178548
183.61449697009877
207.0897405157743
237.74612308410363
276.36428671328315
236.89124684641004
210.43012225503506
189.92609853306612
174.74966690004553
164.04491668554184
156.8661026476352
152.28995616554226
149.51760889717593
147.92125631862652
147.0473271126281
146.59239801018353
146.36765502193754
146.2636812696564
146.2220210510834
146.2155237335608
146.23698818856306
146.29482483871635
146.41474649993637
146.6472998646203
147.08176929299478
147.86727464074718
149.24134787037357
151.56456861289058
155.35685667358786
161.3271105014181
170.38405556334487
183.61452659596108
202.21779557922497
227.39282939495726
260.1885690057326
301.3410041006542
246.24661457554296
221.92750458951213
203.4005604288663
189.92608502072179
180.62846179051894
174.53106852622335
170.7322267607713
168.48415788893053
167.22035228633968
166.54515607075285
166.20234901273244
166.03748634306442
165.96397263048277
165.93739183525742
165.93881085063893
165.96594649006803
166.03080557308292
166.16301130868285
166.4189444630037
166.89757027698323
167.763986977347
169.2809845032409
171.84680013571386
176.03365060768945
182.61712564399568
192.58214178115875
207.08975739144955
227.39283045764532
254.69927311343434
290.0020012874743
333.9157671239911
259.81408402604774
238.19190700339945
221.92750189143877
210.4301368278427
202.68866702755952
197.7339701069348
194.72230838277838
192.98415099797583
192.0314222267754
191.53526957822282
191.28989015872173
191.1753700278785
191.1269180322067
191.1130358828232
191.12234461934796
191.15756164562237
191.23532332479058
191.39144811819466
191.69219945622316
192.25263586666847
193.26319143118388
195.02437766036337
197.98681889625377
202.7895916489441
210.28475623340648
221.53191710581433
237.74613487981546
260.18857918868235
290.0019958811608
328.0079067306972
374.6318717798883
278.84911665700577
259.8140752139045
246.2466640410995
236.89129421014917
230.7490871757858
226.91766977636402
224.64869503990136
223.37308988282177
222.69212012538284
222.34679680926067
222.18071935779884
222.1061353346108
222.07765890333246
222.07509005666017
222.0940764719648
222.14306160551615
222.24538001412185
222.44703420542112
222.8305305321226
223.53633424899118
224.7926276951205
226.95239189768768
230.5332682166506
236.25116577259888
245.03367002604392
257.99593145019315
276.36430575587667
301.3410092215756
333.9157305998371
374.63184141581127
422.7337432361816
