# vtk DataFile Version 2.0
Unstructured Grid Example
ASCII
DATASET UNSTRUCTURED_GRID

POINTS 961 float
0.150000006 -0.00839745998 0
0.146666661 -0.00839745998 0
0.143333331 -0.00839745998 0
0.140000001 -0.00839745998 0
0.13666667 -0.00839745998 0
0.13333334 -0.00839745998 0
0.129999995 -0.00839745998 0
0.126666665 -0.00839745998 0
0.123333335 -0.00839745998 0
0.119999997 -0.00839745998 0
0.116666667 -0.00839745998 0
0.113333337 -0.00839745998 0
0.109999999 -0.00839745998 0
0.106666669 -0.00839745998 0
0.103333332 -0.00839745998 0
0.100000001 -0.00839745998 0
0.0966666639 -0.00839745998 0
0.0933333337 -0.00839745998 0
0.0900000036 -0.00839745998 0
0.086666666 -0.00839745998 0
0.0833333358 -0.00839745998 0
0.0799999982 -0.00839745998 0
0.0766666681 -0.00839745998 0
0.0733333305 -0.00839745998 0
0.0700000003 -0.00839745998 0
0.0666666701 -0.00839745998 0
0.0633333325 -0.00839745998 0
0.0599999987 -0.00839745998 0
0.0566666685 -0.00839745998 0
0.0533333346 -0.00839745998 0
0.0500000007 -0.00839745998 0
0.148333326 -0.0112842107 0
0.144999996 -0.0112842107 0
0.141666666 -0.0112842107 0
0.138333336 -0.0112842107 0
0.135000005 -0.0112842107 0
0.13166666 -0.0112842107 0
0.12833333 -0.0112842107 0
0.125 -0.0112842107 0
0.12166667 -0.0112842107 0
0.118333332 -0.0112842107 0
0.115000002 -0.0112842107 0
0.111666664 -0.0112842107 0
0.108333334 -0.0112842107 0
0.104999997 -0.0112842107 0
0.101666667 -0.0112842107 0
0.0983333364 -0.0112842107 0
0.0949999988 -0.0112842107 0
0.0916666687 -0.0112842107 0
0.088333331 -0.0112842107 0
0.0850000009 -0.0112842107 0
0.0816666633 -0.0112842107 0
0.0783333331 -0.0112842107 0
0.075000003 -0.0112842107 0
0.0716666654 -0.0112842107 0
0.0683333352 -0.0112842107 0
0.0649999976 -0.0112842107 0
0.0616666675 -0.0112842107 0
0.0583333336 -0.0112842107 0
0.0549999997 -0.0112842107 0
0.0516666658 -0.0112842107 0
0.0483333319 -0.0112842107 0
0.146666661 -0.0141709624 0
0.143333331 -0.0141709624 0
0.140000001 -0.0141709624 0
0.13666667 -0.0141709624 0
0.13333334 -0.0141709624 0
0.129999995 -0.0141709624 0
0.126666665 -0.0141709624 0
0.123333335 -0.0141709624 0
0.119999997 -0.0141709624 0
0.116666667 -0.0141709624 0
0.113333337 -0.0141709624 0
0.109999999 -0.0141709624 0
0.106666669 -0.0141709624 0
0.103333332 -0.0141709624 0
0.100000001 -0.0141709624 0
0.0966666639 -0.0141709624 0
0.0933333337 -0.0141709624 0
0.0900000036 -0.0141709624 0
0.086666666 -0.0141709624 0
0.0833333358 -0.0141709624 0
0.0799999982 -0.0141709624 0
0.0766666681 -0.0141709624 0
0.0733333305 -0.0141709624 0
0.0700000003 -0.0141709624 0
0.0666666701 -0.0141709624 0
0.0633333325 -0.0141709624 0
0.0599999987 -0.0141709624 0
0.0566666685 -0.0141709624 0
0.0533333346 -0.0141709624 0
0.0500000007 -0.0141709624 0
0.0466666669 -0.0141709624 0
0.144999996 -0.0170577131 0
0.141666666 -0.0170577131 0
0.138333336 -0.0170577131 0
0.135000005 -0.0170577131 0
0.13166666 -0.0170577131 0
0.12833333 -0.0170577131 0
0.125 -0.0170577131 0
0.12166667 -0.0170577131 0
0.118333332 -0.0170577131 0
0.115000002 -0.0170577131 0
0.111666664 -0.0170577131 0
0.108333334 -0.0170577131 0
0.104999997 -0.0170577131 0
0.101666667 -0.0170577131 0
0.0983333364 -0.0170577131 0
0.0949999988 -0.0170577131 0
0.0916666687 -0.0170577131 0
0.088333331 -0.0170577131 0
0.0850000009 -0.0170577131 0
0.0816666633 -0.0170577131 0
0.0783333331 -0.0170577131 0
0.075000003 -0.0170577131 0
0.0716666654 -0.0170577131 0
0.0683333352 -0.0170577131 0
0.0649999976 -0.0170577131 0
0.0616666675 -0.0170577131 0
0.0583333336 -0.0170577131 0
0.0549999997 -0.0170577131 0
0.0516666658 -0.0170577131 0
0.0483333319 -0.0170577131 0
0.0450000018 -0.0170577131 0
0.143333331 -0.0199444648 0
0.140000001 -0.0199444648 0
0.13666667 -0.0199444648 0
0.13333334 -0.0199444648 0
0.129999995 -0.0199444648 0
0.126666665 -0.0199444648 0
0.123333335 -0.0199444648 0
0.119999997 -0.0199444648 0
0.116666667 -0.0199444648 0
0.113333337 -0.0199444648 0
0.109999999 -0.0199444648 0
0.106666669 -0.0199444648 0
0.103333332 -0.0199444648 0
0.100000001 -0.0199444648 0
0.0966666639 -0.0199444648 0
0.0933333337 -0.0199444648 0
0.0900000036 -0.0199444648 0
0.086666666 -0.0199444648 0
0.0833333358 -0.0199444648 0
0.0799999982 -0.0199444648 0
0.0766666681 -0.0199444648 0
0.0733333305 -0.0199444648 0
0.0700000003 -0.0199444648 0
0.0666666701 -0.0199444648 0
0.0633333325 -0.0199444648 0
0.0599999987 -0.0199444648 0
0.0566666685 -0.0199444648 0
0.0533333346 -0.0199444648 0
0.0500000007 -0.0199444648 0
0.0466666669 -0.0199444648 0
0.043333333 -0.0199444648 0
0.141666666 -0.0228312165 0
0.138333336 -0.0228312165 0
0.135000005 -0.0228312165 0
0.13166666 -0.0228312165 0
0.12833333 -0.0228312165 0
0.125 -0.0228312165 0
0.12166667 -0.0228312165 0
0.118333332 -0.0228312165 0
0.115000002 -0.0228312165 0
0.111666664 -0.0228312165 0
0.108333334 -0.0228312165 0
0.104999997 -0.0228312165 0
0.101666667 -0.0228312165 0
0.0983333364 -0.0228312165 0
0.0949999988 -0.0228312165 0
0.0916666687 -0.0228312165 0
0.088333331 -0.0228312165 0
0.0850000009 -0.0228312165 0
0.0816666633 -0.0228312165 0
0.0783333331 -0.0228312165 0
0.075000003 -0.0228312165 0
0.0716666654 -0.0228312165 0
0.0683333352 -0.0228312165 0
0.0649999976 -0.0228312165 0
0.0616666675 -0.0228312165 0
0.0583333336 -0.0228312165 0
0.0549999997 -0.0228312165 0
0.0516666658 -0.0228312165 0
0.0483333319 -0.0228312165 0
0.0450000018 -0.0228312165 0
0.0416666679 -0.0228312165 0
0.140000001 -0.0257179681 0
0.13666667 -0.0257179681 0
0.13333334 -0.0257179681 0
0.129999995 -0.0257179681 0
0.126666665 -0.0257179681 0
0.123333335 -0.0257179681 0
0.119999997 -0.0257179681 0
0.116666667 -0.0257179681 0
0.113333337 -0.0257179681 0
0.109999999 -0.0257179681 0
0.106666669 -0.0257179681 0
0.103333332 -0.0257179681 0
0.100000001 -0.0257179681 0
0.0966666639 -0.0257179681 0
0.0933333337 -0.0257179681 0
0.0900000036 -0.0257179681 0
0.086666666 -0.0257179681 0
0.0833333358 -0.0257179681 0
0.0799999982 -0.0257179681 0
0.0766666681 -0.0257179681 0
0.0733333305 -0.0257179681 0
0.0700000003 -0.0257179681 0
0.0666666701 -0.0257179681 0
0.0633333325 -0.0257179681 0
0.0599999987 -0.0257179681 0
0.0566666685 -0.0257179681 0
0.0533333346 -0.0257179681 0
0.0500000007 -0.0257179681 0
0.0466666669 -0.0257179681 0
0.043333333 -0.0257179681 0
0.0399999991 -0.0257179681 0
0.138333336 -0.0286047198 0
0.135000005 -0.0286047198 0
0.13166666 -0.0286047198 0
0.12833333 -0.0286047198 0
0.125 -0.0286047198 0
0.12166667 -0.0286047198 0
0.118333332 -0.0286047198 0
0.115000002 -0.0286047198 0
0.111666664 -0.0286047198 0
0.108333334 -0.0286047198 0
0.104999997 -0.0286047198 0
0.101666667 -0.0286047198 0
0.0983333364 -0.0286047198 0
0.0949999988 -0.0286047198 0
0.0916666687 -0.0286047198 0
0.088333331 -0.0286047198 0
0.0850000009 -0.0286047198 0
0.0816666633 -0.0286047198 0
0.0783333331 -0.0286047198 0
0.075000003 -0.0286047198 0
0.0716666654 -0.0286047198 0
0.0683333352 -0.0286047198 0
0.0649999976 -0.0286047198 0
0.0616666675 -0.0286047198 0
0.0583333336 -0.0286047198 0
0.0549999997 -0.0286047198 0
0.0516666658 -0.0286047198 0
0.0483333319 -0.0286047198 0
0.0450000018 -0.0286047198 0
0.0416666679 -0.0286047198 0
0.038333334 -0.0286047198 0
0.13666667 -0.0314914696 0
0.13333334 -0.0314914696 0
0.129999995 -0.0314914696 0
0.126666665 -0.0314914696 0
0.123333335 -0.0314914696 0
0.119999997 -0.0314914696 0
0.116666667 -0.0314914696 0
0.113333337 -0.0314914696 0
0.109999999 -0.0314914696 0
0.106666669 -0.0314914696 0
0.103333332 -0.0314914696 0
0.100000001 -0.0314914696 0
0.0966666639 -0.0314914696 0
0.0933333337 -0.0314914696 0
0.0900000036 -0.0314914696 0
0.086666666 -0.0314914696 0
0.0833333358 -0.0314914696 0
0.0799999982 -0.0314914696 0
0.0766666681 -0.0314914696 0
0.0733333305 -0.0314914696 0
0.0700000003 -0.0314914696 0
0.0666666701 -0.0314914696 0
0.0633333325 -0.0314914696 0
0.0599999987 -0.0314914696 0
0.0566666685 -0.0314914696 0
0.0533333346 -0.0314914696 0
0.0500000007 -0.0314914696 0
0.0466666669 -0.0314914696 0
0.043333333 -0.0314914696 0
0.0399999991 -0.0314914696 0
0.0366666652 -0.0314914696 0
0.135000005 -0.0343782231 0
0.13166666 -0.0343782231 0
0.12833333 -0.0343782231 0
0.125 -0.0343782231 0
0.12166667 -0.0343782231 0
0.118333332 -0.0343782231 0
0.115000002 -0.0343782231 0
0.111666664 -0.0343782231 0
0.108333334 -0.0343782231 0
0.104999997 -0.0343782231 0
0.101666667 -0.0343782231 0
0.0983333364 -0.0343782231 0
0.0949999988 -0.0343782231 0
0.0916666687 -0.0343782231 0
0.088333331 -0.0343782231 0
0.0850000009 -0.0343782231 0
0.0816666633 -0.0343782231 0
0.0783333331 -0.0343782231 0
0.075000003 -0.0343782231 0
0.0716666654 -0.0343782231 0
0.0683333352 -0.0343782231 0
0.0649999976 -0.0343782231 0
0.0616666675 -0.0343782231 0
0.0583333336 -0.0343782231 0
0.0549999997 -0.0343782231 0
0.0516666658 -0.0343782231 0
0.0483333319 -0.0343782231 0
0.0450000018 -0.0343782231 0
0.0416666679 -0.0343782231 0
0.038333334 -0.0343782231 0
0.0350000001 -0.0343782231 0
0.13333334 -0.0372649729 0
0.129999995 -0.0372649729 0
0.126666665 -0.0372649729 0
0.123333335 -0.0372649729 0
0.119999997 -0.0372649729 0
0.116666667 -0.0372649729 0
0.113333337 -0.0372649729 0
0.109999999 -0.0372649729 0
0.106666669 -0.0372649729 0
0.103333332 -0.0372649729 0
0.100000001 -0.0372649729 0
0.0966666639 -0.0372649729 0
0.0933333337 -0.0372649729 0
0.0900000036 -0.0372649729 0
0.086666666 -0.0372649729 0
0.0833333358 -0.0372649729 0
0.0799999982 -0.0372649729 0
0.0766666681 -0.0372649729 0
0.0733333305 -0.0372649729 0
0.0700000003 -0.0372649729 0
0.0666666701 -0.0372649729 0
0.0633333325 -0.0372649729 0
0.0599999987 -0.0372649729 0
0.0566666685 -0.0372649729 0
0.0533333346 -0.0372649729 0
0.0500000007 -0.0372649729 0
0.0466666669 -0.0372649729 0
0.043333333 -0.0372649729 0
0.0399999991 -0.0372649729 0
0.0366666652 -0.0372649729 0
0.0333333351 -0.0372649729 0
0.13166666 -0.0401517227 0
0.12833333 -0.0401517227 0
0.125 -0.0401517227 0
0.12166667 -0.0401517227 0
0.118333332 -0.0401517227 0
0.115000002 -0.0401517227 0
0.111666664 -0.0401517227 0
[...]
POINT_DATA 961
SCALARS Temp float 1
LOOKUP_TABLE default
398.7473441680424
349.8888117629894
309.48501197549444
278.21446329674257
255.2038411218932
239.08637937241204
228.33050650212135
221.48362348265448
217.31956011105538
214.89565630154334
213.54242858878428
212.81628384904468
212.44093975783187
212.2536519598528
212.16328743163317
212.12116644615764
212.10254868277335
212.09585953179507
212.09730218535978
212.1094582011067
212.14383818791083
212.22868788883807
212.42477094327245
212.8525990427016
213.73341517256313
215.44184009585504
218.5593940730237
223.90788063469012
232.537046244943
245.65539400531807
264.77515176777814
349.88883807923395
302.9208287827714
265.73347277685855
237.60587606898375
217.34539935502173
203.44071322140022
194.340827544909
188.6544965675252
185.2562760566343
183.31041177845134
182.2406087173668
181.6746813234818
181.38600577380674
181.24373559008595
181.17592459637652
181.14483502355682
181.1317761905831
181.1287233754636
181.13469739653425
181.15611541826425
181.2116752652662
181.34380230704116
181.6398829371606
182.2665171242271
183.51749026120422
185.86957346109517
190.0300915023071
196.95084079976877
207.78184452280428
223.76082181108072
245.65542047046685
309.4849356101029
265.73343791985917
231.62052027182
206.21079256281294
188.14583183440118
175.8871968524266
167.9417696935919
163.0171231754147
160.09385124318928
158.4290639537966
157.517732131712
157.03723680527963
156.79275443357767
156.6725069758939
156.61535368885149
156.5894402343172
156.57933811988934
156.57924404254598
156.59069915237407
156.62455616299175
156.7082929238009
156.90119788754993
157.3207469973441
158.1825715124147
159.85232321363466
162.89951626770048
168.13279931660426
176.58803280607793
189.44031092668453
207.78183676914574
232.53706711074105
278.21436075180515
237.60581941657483
206.21078266624872
182.9871046790554
166.56008504980863
155.4500576155187
148.26200598435562
143.80911500812692
141.1645323154944
139.6564839919645
138.82937683504557
138.39228185970373
138.1693190471483
138.05939930058707
138.007140783212
137.9837541595763
137.97564972181425
137.97871012327616
137.9971213413337
138.0468836746992
138.16553366611893
138.43080814420136
138.99122999293832
140.10970440195695
142.21578406850415
145.95319934362578
152.19935063109503
162.02770350373848
176.58804687701738
196.9508506834787
223.90785231790449
255.20373202797174
217.34533881923156
188.14580248306515
166.56013994217952
151.279115597893
140.92361283622813
134.2047925025215
130.0285454645579
127.53916903528503
126.11425715051841
125.32982116473325
124.91378574672558
124.70086172188651
124.59561996869077
124.54561486809324
124.52366544759428
124.51737127586465
124.52416574616717
124.5511182436915
124.61990833785269
124.77873087406462
125.12380266712523
125.83280319976926
127.20981010341936
129.73507565047706
134.10407219501838
141.23204396213265
152.19934289112066
168.1327913969649
190.03007898197563
218.55937413799444
239.08626916679208
203.44071073837029
175.88722502113222
155.45002521730783
140.923602009236
131.0363577664086
124.5929912013645
120.57085394042006
118.16376254581175
116.78091642817826
116.01714861914094
115.61090410569297
115.40248844168471
115.29932827126756
115.25044701156
115.22956902014324
115.22522147706654
115.23640187252406
115.2732297542711
115.3632130912971
115.56492909998511
115.99151205622266
116.84550369632214
118.46325278397843
121.36065985276413
126.26406893942436
134.10406884884404
145.95319842701957
162.89951794242097
185.86954380364818
215.44182909926403
228.33046111486343
194.34082596056044
167.94180782018262
148.26197526162574
134.2047835897325
124.59299031295932
118.3033244769218
114.3630095974195
111.9975841737667
110.6351106635071
109.88094100590335
109.4790757765508
109.27262918095745
109.17041836701672
109.12221957132026
109.10234937620855
109.10017021675282
109.11625123713704
109.16374464572434
109.27568333588124
109.51991468994872
110.02369569636967
111.0087700414867
112.83414138973129
116.0376776532063
121.36065622212
129.7350674896624
142.21577168798962
159.85231826859558
183.51748699977122
213.73342799400513
221.48361148876
188.65451908240067
163.01708156730626
143.80909705884721
130.02855154362686
120.57086652530364
114.36300874092431
110.4642172463252
108.11900237468723
106.7660058558512
106.01612526993038
105.61615722948869
105.41056627543739
105.30884180472789
105.26117926970811
105.2423516671727
105.24250876467215
105.26372802302369
105.3219588910414
105.45505277755235
105.73843576069869
106.3100953072998
107.4051546193077
109.39672552171791
112.83413953597514
118.46325004668455
127.20981070717623
140.1097045844592
158.1825581942276
182.26650245251858
212.85260359724268
217.31956244687058
185.2563427137616
160.09383534343752
141.16453114962957
127.53917901757059
118.1637576948705
111.99758339967951
108.11900807186255
105.78322203938417
104.43447043093047
103.6864447623468
103.28728269753252
103.08208174966181
102.98066699649578
102.93350301049219
102.91575274190905
102.918289125733
102.94454405958209
103.01285126427508
103.16492067502577
103.48183934081378
104.10899231152078
105.2898494796094
107.40515606948905
111.00877011723198
116.84550266435112
125.83280200697834
138.99122684208206
157.3207537887363
181.63989691034377
212.42479930841608
214.89578627771198
183.3104134350888
158.4290728592291
139.65649443880378
126.114274438598
116.78091722733568
110.63511556633007
106.76600463800278
104.43446940586112
103.08755687611648
102.34031705749067
101.94150267487792
101.7365086780822
101.6353418523898
101.58866532635203
101.57198089935626
101.57679123013259
101.60765621760997
101.68478195586691
101.85271248295076
102.19638946766607
102.86579719347901
104.10899120795712
106.31009493057154
110.02369557770763
115.9915117711119
125.12380321090903
138.43079359797204
156.90118724864678
181.34379197610912
212.22869327259585
213.5426376761232
182.24060924127744
157.51773832475544
138.82938781630816
125.32981313298671
116.0171494819787
109.88094682829544
106.0161250490309
103.68644583018818
102.3403169125088
101.59341277542241
101.19476586867131
100.98991477493573
100.88897592675
100.84277045895162
100.82708377839897
100.83393116687982
100.8687416426923
100.95307376333326
101.13337585648195
101.49697087235066
102.19639048617441
103.48183969571834
105.73843479616838
109.51991324409293
115.56492832472773
124.77872900842924
138.16553389661402
156.70830040982386
181.21168637719188
212.14382193794208
212.8162699028976
181.67466035876316
157.03723503240056
138.39229126874673
124.9137755158706
115.61090589019666
109.47907114231911
105.61615739396825
103.28728006663788
101.94150253962903
101.19476655853386
100.79623311038445
100.59151350851342
100.490799052683
100.44503597899231
100.43023361541036
100.4387948353391
100.47676677169736
100.56660552751073
100.75592678024735
101.13337661944118
101.85271305061738
103.1649202654583
105.45505490087817
109.27568662981442
115.36321936701091
124.61990460629268
138.04687895544825
156.62455738672531
181.15611327554555
212.10944884946517
212.44088375453234
181.3859823886438
156.7927592832789
138.16929935807252
124.70085950031685
115.40249724534732
109.27262731119667
105.4105689005142
103.08208035661814
101.73650928994675
100.98991432231182
100.59151324738627
100.38695193272079
100.2864751318265
100.24112316485068
100.22707135433552
100.2369945423903
100.27734593400571
100.37112779217728
100.56660497849677
100.95307359259942
101.68478277481307
103.01284955995084
105.32195837102162
109.16374362799381
115.27322804918718
124.55111686976038
137.9971194313627
156.5907034974921
181.13466975216144
212.0973156563154
212.25357686965432
181.24370334826204
156.67251324254227
138.05938069692272
124.5956199031849
115.29932004740458
109.17041784568951
105.30883894412673
102.98066604429359
101.63534285418142
100.88897536658727
100.49079901011453
100.28647507232743
100.18628319884
100.14132941344232
100.12790531470623
100.13886454444618
100.18090859850729
100.27734585744201
100.47676691971769
100.86874156351925
101.6076567659642
102.94454396014169
105.26372993231647
109.1162545907174
115.23639892392269
124.52416149358177
137.97870426359154
156.57924298631383
181.1287268105663
212.09586104662495
212.16322847142945
181.17591510643337
156.6153293306319
138.0071367645994
124.54562675828961
115.25044422499725
109.12222408335369
105.26117831463992
102.93350278048571
101.58866500059312
100.84277039963911
100.44503613444128
100.24112310664546
100.14132947068248
100.09680774814336
100.08393019185114
100.0956664667947
100.13886449438739
100.23699440896044
100.43879465506805
100.83393120282715
101.57679089398454
102.91828752416693
105.24250812165536
109.10016878539405
115.2252202729477
124.51736972730461
137.9756477886803
156.57932080334058
181.13176780532325
212.10251882210605
212.12112188564333
181.1448471045555
156.58942575917862
137.98375538333636
124.52365364874899
115.22956771426017
109.10234430011657
105.24235152986276
102.91575341620363
101.57198058988432
100.82708384613986
100.43023319855934
100.22707136999735
100.12790523025265
100.08393019119761
100.07158626964471
100.0839302155075
100.1279052656394
100.22707151220018
100.4302333899183
100.8270836536292
101.57198146844291
102.91575269505154
105.24235365505501
109.10234721590204
115.22956598846088
124.52366227058786
137.98374843998093
156.58944162870787
181.1448176515104
212.1211565963899
212.10258104764023
181.13176300500257
156.5793454664784
137.9756660384783
124.51736661325769
115.22522762274129
109.10016859409626
105.24251029446911
102.91828740793079
101.57679176721699
100.83393181197393
100.43879463931346
100.2369947325427
100.13886452337566
100.09566648932712
100.08393023196439
100.09680778331972
100.14132936680477
100.24112316773831
100.44503585786288
100.8427699607758
101.5886650630529
102.93350144984535
105.26117828211392
109.12221906573244
115.25044620948776
124.54561441842571
138.00712245878185
156.61534865373875
181.17590680383765
212.1632838163818
212.09594141688177
181.12871063985833
156.57925182225236
137.97869049310987
124.5241630177495
115.23639371328898
109.11625086266272
105.26373101771361
102.94454239481527
101.60765711684324
100.86874120971738
100.47676665202478
100.277345784369
100.180908545174
100.13886458289026
100.12790532963301
100.14132942807683
100.1862832687129
100.28647516569916
100.49079889678531
100.88897582127181
101.63534238175276
102.98066720622452
105.30884058104735
109.17041668756936
115.29932610872268
124.59561658665177
138.059397624997
156.67249993303602
181.2437331963461
212.25367686361457
212.09726200302867
181.13467675076984
156.59070950146153
137.99710235648004
124.55111929010324
115.27322244590768
109.16374392813543
105.32195622724892
103.01284998446073
101.68478324131002
100.95307319367534
100.56660538864901
100.37112771544945
100.27734587776014
100.23699452983658
100.22707134543751
100.24112312760927
100.28647519808965
100.38695185506307
100.59151317143919
100.98991464808562
101.73650909678751
103.08208136115596
105.41056759203819
109.27263169542478
115.40249386492235
124.7008570942414
138.16932300592677
156.79275806651404
181.38601557477722
212.4409598644003
212.10941284640109
181.15611337581944
156.62453327093718
138.04687923856469
124.61989624151552
115.36321358883968
109.27568847266537
105.45505241649306
103.16492095945931
101.85271246439713
101.13337615113925
100.75592663759741
100.56660540796099
100.47676686040761
100.43879486285132
100.43023361900984
100.44503600976454
100.4907990931092
100.59151343859658
100.79623333080337
101.19476626089327
101.941503149709
103.28728091501925
105.61615654714686
109.47907470252177
115.61090278276464
124.91378478998826
138.3922722037639
157.0372337121917
181.67467846340813
212.8162938231558
212.14380987822645
181.21168484902836
156.70827533216482
138.16553694477324
124.77872109200503
115.56492927133904
109.51991008737554
105.73843570513358
103.48184059825115
102.19638981034717
101.4969716413459
101.13337574426131
100.95307365323677
100.86874159470058
100.83393111130165
100.82708378319212
100.8427705309856
100.88897587445688
100.98991474770594
101.1947660156042
101.59341260904914
102.34031739563044
103.68644488208469
106.01612741721215
109.88094372064477
116.01714566410796
125.32982387192676
138.8293730769179
157.51773353596073
182.24061036729591
213.54243075230292
212.2286787791093
181.34376154514615
156.90118917489667
138.4307831475394
125.12379591539934
115.9915152815474
110.02369204963028
106.31009625195105
104.10899030372946
102.86579641550749
102.1963891888707
101.85271221183676
101.68478211243958
101.6076563076014
101.57679124148139
101.57198092072898
101.58866534570025
101.6353418070861
101.73650876606729
101.9415024639442
102.34031733369788
103.08755717084968
104.43446865124854
106.76600625584467
110.63511223465078
116.78092064612987
126.11425473526916
139.6564825341406
158.42907100941028
183.31041672143502
214.895638402203
212.42483742714393
181.6398885701437
157.32077552413136
138.9912293514445
125.8328132023992
116.84550466994042
111.00877649693257
107.40516130902505
105.28985139915963
104.10899629159363
103.48184165954217
103.16492282073786
103.01285344605981
102.94454619147395
102.9182914699959
102.91575517766668
102.93350522546358
102.98066926160583
103.0820839619365
103.28728456227627
103.68644679687874
104.434471304325
105.7832242524562
108.11900583654068
111.99757912386956
118.16376050451007
127.53916148253973
141.16452051545224
160.0938405471482
185.25623548146808
217.31951985927773
212.8525974239009
182.26652915238756
158.18256426846278
140.10970907156303
127.20982599985297
118.46325248955745
112.8341476080228
109.39672921177132
107.4051578822627
106.31009893707328
105.73843915746312
105.45505692178904
105.32196303654864
105.26373198771398
105.24251272254931
105.24235558471653
105.26118311387003
105.30884561901584
105.41056979896496
105.61616091444442
106.01612859455783
106.76600839062684
108.11900582450833
110.46421682809225
114.36301162870677
120.5708528784169
130.02854431024207
143.8091049978846
163.0171182778556
188.65448859165764
221.48363891218162
213.7334078380714
183.51751596325565
159.85231986403628
142.2157835099655
129.73506692484236
121.36066312462515
116.03768392084892
112.83414314261907
111.00877530920505
110.02369861742545
109.51991733048233
109.27568611202703
109.1637474140779
109.11625458972998
109.10017378748411
109.10235249748335
109.12222280643871
109.17042130956168
109.27263169469978
109.47907836980129
109.88094307151982
110.6351137503563
111.99758501369091
114.36301027989313
118.30333095669462
124.5929860857891
134.20479103164237
148.26200791707743
167.94177058544912
194.34083900850894
228.33054625526978
215.4418681191516
185.86954211310265
162.89950899972467
145.95320533033097
134.104061592019
126.26407182633652
121.36065803007354
118.46325097080327
116.84550252262227
115.99151057366728
115.56492915309236
115.36321363375676
115.27323017783631
115.2364023285112
115.22522178502264
115.22956920363197
115.25044691810116
115.29932771246962
115.40248784754023
115.6109030008239
116.0171476466512
116.78091678731155
118.16376156474634
120.57085651540912
124.59298536457574
131.03636065403012
140.92362297255798
155.45007591884305
175.88722263426234
203.44074169316937
239.0863659127973
218.55940356184394
190.03005473903855
168.1327828198998
152.19932317359545
141.2320378828375
134.10406754821037
129.73506545604047
127.20980483921353
125.83279469262507
125.12379380020201
124.7787226554257
124.61990061171485
124.5511118568109
124.52415966225334
124.51736427730657
124.52365855762567
124.54560710690403
124.59561111809474
124.70085252422982
124.9137765407411
125.32981340620664
126.11424923260738
127.53916293447227
130.02854425510947
134.20478604027832
140.92361794109104
151.27914211774973
166.56011021847183
188.14580238950936
217.34537135158865
255.20379051287773
223.90784828994572
196.95085111430467
176.58807335082304
162.02771624209618
152.1993774001413
145.95321946370106
142.21580251163087
140.10972204293282
138.99124637661376
138.43082727673118
138.16555501268175
138.04690579303994
137.99714322215377
137.97873122062626
137.9756707504308
137.98377451287973
138.00715956471822
138.05941673972347
138.1693351962809
138.39229927132718
138.82939694119884
139.65650454328062
141.1645551731935
143.80913179497102
148.26202835597402
155.4500917445462
166.5601367258191
182.98710194297564
206.21078638727516
237.60584189672062
278.2144276080318
232.53704060918977
207.78185015296228
189.44031779282744
176.58806068681875
168.13282882500357
162.89953550224504
159.85234553103626
158.18258769868348
157.3207622032523
156.90121648228683
156.70831573814175
156.6245807330929
156.59072190938605
156.57926568973795
156.57936103988214
156.5894608749112
156.61536999747742
156.6725205329566
156.79276839385332
157.03725518645174
157.51775404998327
158.42908858488832
160.093877270334
163.01714367448642
167.94179767069446
175.88723697672165
188.14581809372837
206.2107887764871
231.62052455086763
265.7334633070879
309.4850318659329
245.65539095978733
223.76082265196166
207.78184814879137
196.95086634540647
190.03010251902438
185.8695789565568
183.51749089523608
182.26651188063946
181.63988196273272
181.3438172682028
181.21169503343444
181.1561254982995
181.1347043448395
181.12873616020693
181.1317895053776
181.1448403751614
181.1759227094216
181.2437282084682
181.38600503401585
181.67469286502325
182.2406254615987
183.31042626023157
185.25628297508402
188.65451017187308
194.34085139897584
203.44074953956
217.34538172831876
237.6058537574988
265.7334585757272
302.9208394647547
349.88882118633586
264.775104927928
245.6553826597547
232.53709070671988
223.90789601088298
218.55939269153234
215.44183921444886
213.73340268795724
212.85255586605092
212.42476911151778
212.22872582053262
212.14384458699948
212.10944284484225
212.09730415568228
212.0958803068576
212.1025501463334
212.12115819570292
212.16325567110738
212.25362218197589
212.4409366976888
212.81630550068695
213.54244360594146
214.89565385035104
217.31956143012158
221.48363291810642
228.3305315877436
239.08635140581072
255.20380792007953
278.2144338694249
309.4849958739612
349.88879069954913
398.7469906646951
