# vtk DataFile Version 2.0
Unstructured Grid Example
ASCII
DATASET UNSTRUCTURED_GRID

POINTS 961 float
0.150000006 -0.00839745998 0
0.146666661 -0.00839745998 0
0.143333331 -0.00839745998 0
0.140000001 -0.00839745998 0
0.13666667 -0.00839745998 0
0.13333334 -0.00839745998 0
0.129999995 -0.00839745998 0
0.126666665 -0.00839745998 0
0.123333335 -0.00839745998 0
0.119999997 -0.00839745998 0
0.116666667 -0.00839745998 0
0.113333337 -0.00839745998 0
0.109999999 -0.00839745998 0
0.106666669 -0.00839745998 0
0.103333332 -0.00839745998 0
0.100000001 -0.00839745998 0
0.0966666639 -0.00839745998 0
0.0933333337 -0.00839745998 0
0.0900000036 -0.00839745998 0
0.086666666 -0.00839745998 0
0.0833333358 -0.00839745998 0
0.0799999982 -0.00839745998 0
0.0766666681 -0.00839745998 0
0.0733333305 -0.00839745998 0
0.0700000003 -0.00839745998 0
0.0666666701 -0.00839745998 0
0.0633333325 -0.00839745998 0
0.0599999987 -0.00839745998 0
0.0566666685 -0.00839745998 0
0.0533333346 -0.00839745998 0
0.0500000007 -0.00839745998 0
0.148333326 -0.0112842107 0
0.144999996 -0.0112842107 0
0.141666666 -0.0112842107 0
0.138333336 -0.0112842107 0
0.135000005 -0.0112842107 0
0.13166666 -0.0112842107 0
0.12833333 -0.0112842107 0
0.125 -0.0112842107 0
0.12166667 -0.0112842107 0
0.118333332 -0.0112842107 0
0.115000002 -0.0112842107 0
0.111666664 -0.0112842107 0
0.108333334 -0.0112842107 0
0.104999997 -0.0112842107 0
0.101666667 -0.0112842107 0
0.0983333364 -0.0112842107 0
0.0949999988 -0.0112842107 0
0.0916666687 -0.0112842107 0
0.088333331 -0.0112842107 0
0.0850000009 -0.0112842107 0
0.0816666633 -0.0112842107 0
0.0783333331 -0.0112842107 0
0.075000003 -0.0112842107 0
0.0716666654 -0.0112842107 0
0.0683333352 -0.0112842107 0
0.0649999976 -0.0112842107 0
0.0616666675 -0.0112842107 0
0.0583333336 -0.0112842107 0
0.0549999997 -0.0112842107 0
0.0516666658 -0.0112842107 0
0.0483333319 -0.0112842107 0
0.146666661 -0.0141709624 0
0.143333331 -0.0141709624 0
0.140000001 -0.0141709624 0
0.13666667 -0.0141709624 0
0.13333334 -0.0141709624 0
0.129999995 -0.0141709624 0
0.126666665 -0.0141709624 0
0.123333335 -0.0141709624 0
0.119999997 -0.0141709624 0
0.116666667 -0.0141709624 0
0.113333337 -0.0141709624 0
0.109999999 -0.0141709624 0
0.106666669 -0.0141709624 0
0.103333332 -0.0141709624 0
0.100000001 -0.0141709624 0
0.0966666639 -0.0141709624 0
0.0933333337 -0.0141709624 0
0.0900000036 -0.0141709624 0
0.086666666 -0.0141709624 0
0.0833333358 -0.0141709624 0
0.0799999982 -0.0141709624 0
0.0766666681 -0.0141709624 0
0.0733333305 -0.0141709624 0
0.0700000003 -0.0141709624 0
0.0666666701 -0.0141709624 0
0.0633333325 -0.0141709624 0
0.0599999987 -0.0141709624 0
0.0566666685 -0.0141709624 0
0.0533333346 -0.0141709624 0
0.0500000007 -0.0141709624 0
0.0466666669 -0.0141709624 0
0.144999996 -0.0170577131 0
0.141666666 -0.0170577131 0
0.138333336 -0.0170577131 0
0.135000005 -0.0170577131 0
0.13166666 -0.0170577131 0
0.12833333 -0.0170577131 0
0.125 -0.0170577131 0
0.12166667 -0.0170577131 0
0.118333332 -0.0170577131 0
0.115000002 -0.0170577131 0
0.111666664 -0.0170577131 0
0.108333334 -0.0170577131 0
0.104999997 -0.0170577131 0
0.101666667 -0.0170577131 0
0.0983333364 -0.0170577131 0
0.0949999988 -0.0170577131 0
0.0916666687 -0.0170577131 0
0.088333331 -0.0170577131 0
0.0850000009 -0.0170577131 0
0.0816666633 -0.0170577131 0
0.0783333331 -0.0170577131 0
0.075000003 -0.0170577131 0
0.0716666654 -0.0170577131 0
0.0683333352 -0.0170577131 0
0.0649999976 -0.0170577131 0
0.0616666675 -0.0170577131 0
0.0583333336 -0.0170577131 0
0.0549999997 -0.0170577131 0
0.0516666658 -0.0170577131 0
0.0483333319 -0.0170577131 0
0.0450000018 -0.0170577131 0
0.143333331 -0.0199444648 0
0.140000001 -0.0199444648 0
0.13666667 -0.0199444648 0
0.13333334 -0.0199444648 0
0.129999995 -0.0199444648 0
0.126666665 -0.0199444648 0
0.123333335 -0.0199444648 0
0.119999997 -0.0199444648 0
0.116666667 -0.0199444648 0
0.113333337 -0.0199444648 0
0.109999999 -0.0199444648 0
0.106666669 -0.0199444648 0
0.103333332 -0.0199444648 0
0.100000001 -0.0199444648 0
0.0966666639 -0.0199444648 0
0.0933333337 -0.0199444648 0
0.0900000036 -0.0199444648 0
0.086666666 -0.0199444648 0
0.0833333358 -0.0199444648 0
0.0799999982 -0.0199444648 0
0.0766666681 -0.0199444648 0
0.0733333305 -0.0199444648 0
0.0700000003 -0.0199444648 0
0.0666666701 -0.0199444648 0
0.0633333325 -0.0199444648 0
0.0599999987 -0.0199444648 0
0.0566666685 -0.0199444648 0
0.0533333346 -0.0199444648 0
0.0500000007 -0.0199444648 0
0.0466666669 -0.0199444648 0
0.043333333 -0.0199444648 0
0.141666666 -0.0228312165 0
0.138333336 -0.0228312165 0
0.135000005 -0.0228312165 0
0.13166666 -0.0228312165 0
0.12833333 -0.0228312165 0
0.125 -0.0228312165 0
0.12166667 -0.0228312165 0
0.118333332 -0.0228312165 0
0.115000002 -0.0228312165 0
0.111666664 -0.0228312165 0
0.108333334 -0.0228312165 0
0.104999997 -0.0228312165 0
0.101666667 -0.0228312165 0
0.0983333364 -0.0228312165 0
0.0949999988 -0.0228312165 0
0.0916666687 -0.0228312165 0
0.088333331 -0.0228312165 0
0.0850000009 -0.0228312165 0
0.0816666633 -0.0228312165 0
0.0783333331 -0.0228312165 0
0.075000003 -0.0228312165 0
0.0716666654 -0.0228312165 0
0.0683333352 -0.0228312165 0
0.0649999976 -0.0228312165 0
0.0616666675 -0.0228312165 0
0.0583333336 -0.0228312165 0
0.0549999997 -0.0228312165 0
0.0516666658 -0.0228312165 0
0.0483333319 -0.0228312165 0
0.0450000018 -0.0228312165 0
0.0416666679 -0.0228312165 0
0.140000001 -0.0257179681 0
0.13666667 -0.0257179681 0
0.13333334 -0.0257179681 0
0.129999995 -0.0257179681 0
0.126666665 -0.0257179681 0
0.123333335 -0.0257179681 0
0.119999997 -0.0257179681 0
0.116666667 -0.0257179681 0
0.113333337 -0.0257179681 0
0.109999999 -0.0257179681 0
0.106666669 -0.0257179681 0
0.103333332 -0.0257179681 0
0.100000001 -0.0257179681 0
0.0966666639 -0.0257179681 0
0.0933333337 -0.0257179681 0
0.0900000036 -0.0257179681 0
0.086666666 -0.0257179681 0
0.0833333358 -0.0257179681 0
0.0799999982 -0.0257179681 0
0.0766666681 -0.0257179681 0
0.0733333305 -0.0257179681 0
0.0700000003 -0.0257179681 0
0.0666666701 -0.0257179681 0
0.0633333325 -0.0257179681 0
0.0599999987 -0.0257179681 0
0.0566666685 -0.0257179681 0
0.0533333346 -0.0257179681 0
0.0500000007 -0.0257179681 0
0.0466666669 -0.0257179681 0
0.043333333 -0.0257179681 0
0.0399999991 -0.0257179681 0
0.138333336 -0.0286047198 0
0.135000005 -0.0286047198 0
0.13166666 -0.0286047198 0
0.12833333 -0.0286047198 0
0.125 -0.0286047198 0
0.12166667 -0.0286047198 0
0.118333332 -0.0286047198 0
0.115000002 -0.0286047198 0
0.111666664 -0.0286047198 0
0.108333334 -0.0286047198 0
0.104999997 -0.0286047198 0
0.101666667 -0.0286047198 0
0.0983333364 -0.0286047198 0
0.0949999988 -0.0286047198 0
0.0916666687 -0.0286047198 0
0.088333331 -0.0286047198 0
0.0850000009 -0.0286047198 0
0.0816666633 -0.0286047198 0
0.0783333331 -0.0286047198 0
0.075000003 -0.0286047198 0
0.0716666654 -0.0286047198 0
0.0683333352 -0.0286047198 0
0.0649999976 -0.0286047198 0
0.0616666675 -0.0286047198 0
0.0583333336 -0.0286047198 0
0.0549999997 -0.0286047198 0
0.0516666658 -0.0286047198 0
0.0483333319 -0.0286047198 0
0.0450000018 -0.0286047198 0
0.0416666679 -0.0286047198 0
0.038333334 -0.0286047198 0
0.13666667 -0.0314914696 0
0.13333334 -0.0314914696 0
0.129999995 -0.0314914696 0
0.126666665 -0.0314914696 0
0.123333335 -0.0314914696 0
0.119999997 -0.0314914696 0
0.116666667 -0.0314914696 0
0.113333337 -0.0314914696 0
0.109999999 -0.0314914696 0
0.106666669 -0.0314914696 0
0.103333332 -0.0314914696 0
0.100000001 -0.0314914696 0
0.0966666639 -0.0314914696 0
0.0933333337 -0.0314914696 0
0.0900000036 -0.0314914696 0
0.086666666 -0.0314914696 0
0.0833333358 -0.0314914696 0
0.0799999982 -0.0314914696 0
0.0766666681 -0.0314914696 0
0.0733333305 -0.0314914696 0
0.0700000003 -0.0314914696 0
0.0666666701 -0.0314914696 0
0.0633333325 -0.0314914696 0
0.0599999987 -0.0314914696 0
0.0566666685 -0.0314914696 0
0.0533333346 -0.0314914696 0
0.0500000007 -0.0314914696 0
0.0466666669 -0.0314914696 0
0.043333333 -0.0314914696 0
0.0399999991 -0.0314914696 0
0.0366666652 -0.0314914696 0
0.135000005 -0.0343782231 0
0.13166666 -0.0343782231 0
0.12833333 -0.0343782231 0
0.125 -0.0343782231 0
0.12166667 -0.0343782231 0
0.118333332 -0.0343782231 0
0.115000002 -0.0343782231 0
0.111666664 -0.0343782231 0
0.108333334 -0.0343782231 0
0.104999997 -0.0343782231 0
0.101666667 -0.0343782231 0
0.0983333364 -0.0343782231 0
0.0949999988 -0.0343782231 0
0.0916666687 -0.0343782231 0
0.088333331 -0.0343782231 0
0.0850000009 -0.0343782231 0
0.0816666633 -0.0343782231 0
0.0783333331 -0.0343782231 0
0.075000003 -0.0343782231 0
0.0716666654 -0.0343782231 0
0.0683333352 -0.0343782231 0
0.0649999976 -0.0343782231 0
0.0616666675 -0.0343782231 0
0.0583333336 -0.0343782231 0
0.0549999997 -0.0343782231 0
0.0516666658 -0.0343782231 0
0.0483333319 -0.0343782231 0
0.0450000018 -0.0343782231 0
0.0416666679 -0.0343782231 0
0.038333334 -0.0343782231 0
0.0350000001 -0.0343782231 0
0.13333334 -0.0372649729 0
0.129999995 -0.0372649729 0
0.126666665 -0.0372649729 0
0.123333335 -0.0372649729 0
0.119999997 -0.0372649729 0
0.116666667 -0.0372649729 0
0.113333337 -0.0372649729 0
0.109999999 -0.0372649729 0
0.106666669 -0.0372649729 0
0.103333332 -0.0372649729 0
0.100000001 -0.0372649729 0
0.0966666639 -0.0372649729 0
0.0933333337 -0.0372649729 0
0.0900000036 -0.0372649729 0
0.086666666 -0.0372649729 0
0.0833333358 -0.0372649729 0
0.0799999982 -0.0372649729 0
0.0766666681 -0.0372649729 0
0.0733333305 -0.0372649729 0
0.0700000003 -0.0372649729 0
0.0666666701 -0.0372649729 0
0.0633333325 -0.0372649729 0
0.0599999987 -0.0372649729 0
0.0566666685 -0.0372649729 0
0.0533333346 -0.0372649729 0
0.0500000007 -0.0372649729 0
0.0466666669 -0.0372649729 0
0.043333333 -0.0372649729 0
0.0399999991 -0.0372649729 0
0.0366666652 -0.0372649729 0
0.0333333351 -0.0372649729 0
0.13166666 -0.0401517227 0
0.12833333 -0.0401517227 0
0.125 -0.0401517227 0
0.12166667 -0.0401517227 0
0.118333332 -0.0401517227 0
0.115000002 -0.0401517227 0
0.111666664 -0.0401517227 0
[...]
POINT_DATA 961
SCALARS Temp float 1
LOOKUP_TABLE default
415.0832583900345
366.72347474029334
326.074307320016
293.8736384545913
269.4846624267363
251.8073271313071
239.5391005787497
231.3807170650318
226.17682521212558
222.98896860617734
221.1107569485355
220.04475230917333
219.46094859004543
219.15194606787946
218.99371052438036
218.91548802105802
218.87895687676786
218.86513515501537
218.86740297492742
218.88953271300804
218.94870881612397
219.08457802190208
219.3762551749693
219.96915457875792
221.11160378006412
223.19700919602064
226.80086203236925
232.69612325747408
241.830707522273
255.2658478442225
274.33220478329946
366.7235002813082
319.96673425225543
282.18370173619246
252.86592926816246
231.08494983759078
215.58818024556382
205.024247129036
198.1189904366374
193.78619245190094
191.173064189197
189.65602115090977
188.80688260333383
188.34789021269086
188.10794890750412
187.98662662158227
187.92772517122992
187.90166975949097
187.89506459782078
187.90591609031932
187.9439016385934
188.03615359673512
188.24010007080452
188.66542174848848
189.50633353267406
191.0824266206383
193.8807678854061
198.58512379738158
206.0739225388307
217.37115864258573
233.55458605888327
255.26587440545583
326.0742299081716
282.18366581893736
247.22231922826361
220.48377546363204
200.8678829624746
187.06642402106158
177.7501656058301
171.71235732258822
167.95159705578016
165.69755278808668
164.39574491307033
163.67017872063377
163.27934755270127
163.07566726105003
162.97311860043675
162.9240185586559
162.90393414859471
162.90319938773106
162.92391065414293
162.98222644674598
163.11685916378843
163.40555683222027
163.991391467791
165.1189803335978
167.17672809463437
170.73482486118724
176.5622481611503
185.60288178782744
198.89290644915403
217.37115090698487
241.8307287600966
293.87353339435697
252.86587025213265
220.48376472474885
195.9018855059091
177.97406315864114
165.41508483760487
156.9624509899659
151.49383448540175
148.08997464611284
146.04951105704393
144.870048231428
144.21177366263205
143.8565925301537
143.67122004870018
143.57798634206304
143.53404695475962
143.5181023175393
143.5233641043243
143.55603106414077
143.63944283723816
143.82509814679364
144.21231547152635
144.9777641523532
146.413653909622
148.96851799523623
153.27798030430066
160.16742423992403
170.60686605514744
185.60289633838482
206.07393247233753
232.69609479813894
269.4845492775681
231.08488603140975
200.8678512003104
177.97412355295248
161.28645091715603
149.58856311178505
141.70284962584165
136.58923907429727
133.39748015201255
131.4782458299609
130.36526994221066
129.74209059176096
129.40481982525262
129.22840191552967
129.13980898689923
129.0989569701182
129.08666247487108
129.09870553351502
129.14556221600597
129.25822135373807
129.50136950934987
129.99547797660097
130.94824635125917
132.69281718203928
135.7249525205641
140.72533557190812
148.5491710922664
160.16741618107443
176.56223992281525
198.58511135397882
226.80084185639674
251.80721191190145
215.58818054572924
187.06645591141967
165.4150511233831
149.5885516832432
138.45670717675782
130.92489665014804
126.02231878148984
122.9509114588711
121.09749428645496
120.01914365809799
119.41354116688977
119.08495488883736
118.9128499045569
118.82673042679683
118.78817223458779
118.77963381205718
118.79937539910526
118.8622444360071
119.0068884629312
119.31060974833824
119.91299405171402
121.04798104864476
123.08064451190656
126.53982252089143
132.13272400660253
140.7253318579992
153.27797937948515
170.73482645605898
193.88073770769452
223.1969986506295
239.53905661065642
205.02424741549854
177.75020652656127
156.96241887065048
141.70283985521877
130.92489543086288
123.603716677012
118.82101465733422
115.81498281154168
113.99583611507859
112.9348067823763
112.33768955640862
112.0132064893669
111.8432238493879
111.75864795764008
111.72216677226945
111.71766480049934
111.74580943757101
111.82569276522224
112.0031091447316
112.3665146532164
113.07137326863672
114.37188140355963
116.65557877214583
120.47168240529153
126.53981848233536
135.72494364395396
148.96850470106165
167.1767234852171
191.08242347840078
221.11161645266995
231.3807061265769
198.11901461291518
171.7123141166678
151.49381504713574
136.58924623302013
126.02233303039552
118.82101350498647
114.10352918484458
111.13157359133002
109.32958882791456
108.2769093076382
107.6837653658925
107.36121114958303
107.19237428460973
107.10898459552723
107.07457237592273
107.07431731129283
107.11114249986363
107.20800048324918
107.4168722754735
107.83531361486102
108.63088822014672
110.07200332199402
112.56029555436433
116.65557659887052
123.08064125683619
132.69281807887478
146.4136542104884
165.11896658057597
189.50631867092724
219.96915902291923
226.17682887812472
193.78626072368675
167.9515819027343
148.08997398486264
133.39749113622378
122.9509057022621
115.81498165564192
111.13158068574668
108.17672408983817
106.38302355925245
105.33424309062632
104.74292520710208
104.42131377804544
104.25321186036793
104.17088386783989
104.13855468148742
104.14256383598595
104.18783245777698
104.3005846904019
104.53775696004895
105.00373936089296
105.87452328075561
107.42749796536052
110.07200508322161
114.3718817294513
121.04798011564108
130.94824509634734
144.9777608768504
163.99139829347945
188.66543603320144
219.3762836965875
222.98910112444804
191.17306654137585
165.69756187643688
146.04952179783314
131.47826404129955
121.09749520157234
113.99584183024265
109.3295871480431
106.383022170794
104.59319411275077
103.54619732046805
102.95572956889627
102.63463808837304
102.46710767685765
102.38578837886799
102.35549083054023
102.36354980181028
102.41654249294301
102.54326724301183
102.80432783506286
103.30882822117236
104.23808903663789
105.8745219038338
108.6308878353327
113.07137307303915
119.91299362082523
129.9954783311752
144.212300150102
163.40554593074987
188.2400896287839
219.08458358210595
221.11096794724696
189.6560220203405
164.3957509398113
144.87006000929455
130.36526106333892
120.01914456678479
112.93481344318428
108.27690913140339
105.33424449428699
103.5461971117378
102.50002366505083
101.90999053139498
101.58925500616223
101.42223422379865
101.34187509205607
101.31347005010316
101.32515996040814
101.38480188450137
101.52307086994257
101.8030713100333
102.33687744345765
103.30882965237572
105.00373980778615
107.83531242131379
112.3665128818915
119.31060895067003
129.5013675972766
143.82509829477297
163.1168668546461
188.03616475656668
218.94869260889755
220.04473845794885
188.8068615810457
163.67017692523396
144.2117834715603
129.74207938458295
119.41354334216443
112.33768410337593
107.68376558222464
104.74292181081545
102.95572936045289
101.90999155551404
101.32025269248844
100.99983333739739
100.83330546220772
100.75384552240376
100.7271237227768
100.74189257515087
100.80692898043554
100.95417398175165
101.24829889599887
101.8030724068988
102.80432862458657
104.5377564289788
107.41687497686878
112.00311310039281
119.00689551548078
129.25821727302508
143.6394378275146
162.98222777752903
187.94389961838397
218.88952333804434
219.46089197125812
188.34786610528477
163.2793523031573
143.8565715709509
129.4048174174851
119.08496466311296
112.0132042725881
107.36121426373482
104.42131200828364
102.63463892693534
101.58925433929186
100.99983294291326
100.67977720935598
100.51376603947574
100.43514670769412
100.40987025594072
100.42712337453553
100.49629840032419
100.65012540343625
100.95417313731608
101.52307061354243
102.5432683788476
104.30058250008264
107.20799981272073
111.82569153114173
118.86224250831923
129.14556073006642
143.556029077324
162.92391516897922
187.9058882513389
218.86741647146908
219.15187004314663
188.10791596320624
163.07567346801224
143.67120027482747
129.22840182825593
118.91284041540526
111.84322324378903
107.19237071992032
104.25321062050334
102.46710903148023
101.42223341658516
100.8333054199545
100.51376594590532
100.34836313900216
100.27056397187225
100.24651861364542
100.26570510529926
100.33790252071128
100.49629827853789
100.80692921206058
101.3848017869015
102.41654324954969
104.18783231921577
107.11114483751167
111.74581339687283
118.79937207616783
129.09870092270532
143.5233579385944
162.9031983955178
187.89506795233052
218.86513648098548
218.9936508191151
187.98661657355444
162.97309316802787
143.57798190291007
129.13982170014825
118.82672722294488
111.75865313894238
107.10898342594375
104.17088356110135
102.38578792614052
101.34187501717619
100.7538457572747
100.43514661335405
100.27056407044971
100.1936506308542
100.17069722618528
100.19137663415893
100.2657050223562
100.42712316206337
100.74189230158038
101.32516000527278
102.36354933128818
104.14256176080855
107.07431652003802
111.71766315926233
118.77963246120505
129.08666080767875
143.51810030316466
162.90391618478608
187.9016612214994
218.878926802482
218.9154429398523
187.92773687420114
162.92400336315728
143.53404803964844
129.09894378077047
118.78817074557605
111.72216071520401
107.0745722230813
104.1385555482131
102.35549042739312
101.31347015700024
100.72712308934506
100.40987028603217
100.24651847131837
100.17069722566546
100.14881599692829
100.1706972683672
100.24651853275434
100.40987050954716
100.72712338109402
101.31346987760887
102.3554916095921
104.13855463039026
107.0745748368675
111.72216422610529
118.78816884089161
129.09895344675846
143.53404097610905
162.92401988573425
187.92770755185015
218.91547797932535
218.87898903136184
187.90165599090957
162.90394129804693
143.51811924337522
129.0866573471984
118.77964068024065
111.71766293668273
107.07431924057008
104.14256161074039
102.36355054692079
101.32516088754448
100.74189228600179
100.42712368604693
100.2657050736346
100.19137667390024
100.17069729678067
100.19365069197902
100.27056389630927
100.43514671549508
100.75384534645134
101.34187439030514
102.38578803968433
104.17088184913294
107.10898343361607
111.75864734728229
118.8267295517246
129.13980850829105
143.5779669450752
162.97311346383486
187.98660855682888
218.99370700180492
218.86521657730074
187.8950513913772
162.903207178556
143.52334314649286
129.09870261249
118.79936615582557
111.74580905995586
107.11114617210816
104.1878303270488
102.41654373219457
101.38480127562372
100.80692881366964
100.49629815712822
100.33790243064647
100.26570517209478
100.24651863730777
100.27056399761508
100.34836325496879
100.51376609652802
100.83330524831545
101.42223406639935
102.46710840513353
104.25321213246418
107.19237279732015
111.84322190093242
118.91284742160764
129.2283983116706
143.67121815325228
163.07566007184494
188.10794657390855
219.15197108843768
218.8673622332463
187.90589497185033
162.92392109878946
143.55601111655022
129.1455633584942
118.86223623477888
111.82569195877498
107.20799716567954
104.30058307120133
102.54326900482906
101.52307004049287
100.95417375707571
100.65012527729789
100.49629830676894
100.42712335434419
100.40987024274541
100.4351466406491
100.51376614743263
100.67977708650344
100.99983282455307
101.58925481933008
102.63463866235314
104.42131332581893
107.3612127051192
112.01320944016281
119.08496093703701
129.40481477881934
143.85659678063558
163.27935117179038
188.34790017627427
219.46096899580004
218.88948697889822
187.94389952747684
162.98220291331532
143.63943830913078
129.2582082046298
119.00688908873005
112.00311525902812
107.41687195763262
104.5377573200918
102.80432781358755
101.80307174468349
101.2482986717173
100.95417379401518
100.806929130444
100.74189260756746
100.72712372691305
100.75384557565249
100.8333055294168
100.99983322681759
101.32025302479053
101.9099911365375
102.95573019284188
104.74292293619976
107.68376452794946
112.33768837069421
119.4135398545381
129.74208945240267
144.21176354715595
163.67017575073325
188.80688019418466
220.04476235501758
218.94868048518492
188.03616321661332
163.11684131487527
143.82510157082615
129.50135906820014
119.31061009591616
112.36650913634084
107.83531354835304
105.00374094232205
103.3088287276695
102.3368785365092
101.80307112331973
101.5230706973847
101.38480181277023
101.32515987942637
101.31347005174858
101.34187519302874
101.42223413904371
101.58925495185699
101.90999075822558
102.50002342476874
103.54619777322681
105.33424329200787
108.27691203817311
112.93480984242593
120.01914025990558
130.3652730261838
144.87004450436993
164.39574615777846
189.65602284780877
221.11075922278852
219.08456928931196
188.24005911472457
163.40554814456308
144.21228916857464
129.99547047332572
119.91299750700334
113.07136895078361
108.63088942816876
105.8745207012565
104.23808799067734
103.30882781304776
102.80432744757276
102.54326750072748
102.41654258607484
102.36354980693403
102.35549086078348
102.38578840421363
102.46710760193211
102.63463822669176
102.95572925479208
103.54619771178318
104.59319453628314
106.38302118395843
109.3295891990372
113.99583795224508
121.09749909151002
131.47824276838472
146.04950930918497
165.69755995328143
191.17306945132938
222.9889508895167
219.37632203107776
188.66542808224557
163.99142083806117
144.9777637953168
130.94825752350343
121.04798251718613
114.37188937828141
110.07201154544393
107.42750040890773
105.87452850578974
105.00374231146006
104.5377597206502
104.30058751927427
104.18783521813802
104.14256686972637
104.1385578041968
104.17088671010747
104.25321474241235
104.42131662343128
104.74292755650362
105.33424570307922
106.38302462029695
108.1767269577923
111.13157813293606
115.8149769098066
122.9509095020258
133.39747249844993
148.0899633241783
167.95158765955213
193.7861517878286
226.17678548880505
219.9691530753904
189.50634593853505
165.11897309366492
146.4136592732504
132.69283483262527
123.08064426466622
116.65558613728379
112.56029996898046
110.07200728353764
108.63089265251551
107.83531778882563
107.41687748952995
107.20800552813184
107.11114735341053
107.07432216662912
107.07457717256999
107.10898929307685
107.19237895933227
107.36121540215586
107.68376986867229
108.27691338452864
109.32959179546918
111.13157785639463
114.10352870610005
118.82101712542637
126.02231805304301
136.58923881926694
151.4938240067438
171.71235291909005
198.11898338052077
231.38073437406902
221.11159672976353
191.08245269190715
167.17672526448723
148.96851726099203
135.7249430771959
126.53982629830122
120.4716896043094
116.65558071882839
114.37188781048816
113.07137657105424
112.36651770107933
112.00311239848305
111.82569600851528
111.74581337034193
111.71766892550956
111.72217040965573
111.75865169104664
111.8432272743967
112.01320938963514
112.3376925966935
112.93480907227948
113.99583980306473
115.81498358684895
118.8210152187625
123.6037243892578
130.92489059429673
141.7028479955338
156.96245349882508
177.75016753361555
205.02426065379393
239.53914369669187
223.1970377703968
193.88073596779455
170.73481727813294
153.27798642475037
140.7253240070926
132.13272714954735
126.53982020589932
123.08064225168091
121.0479795948203
119.912992322559
119.31060996051322
119.00688893505672
118.86224483075512
118.79937585634053
118.77963410411064
118.78817238812826
118.82673027333367
118.91284919523301
119.08495419977694
119.41353996941368
120.01914245609257
121.09749479366737
122.95091012403712
126.02232182342986
130.9248895583579
138.45671007543814
149.58857419086704
165.4151050575558
187.0664525553634
215.58821216574148
251.80731101002942
226.8008707865026
198.58508666741355
176.56223080832217
160.16739524252196
148.54916449093443
140.7253304059536
135.72494110183536
132.69281177092734
130.94823682297593
129.99546819262932
129.5013605049228
129.25821288985588
129.1455552141247
129.09869877578672
129.08665479980203
129.09894934531457
129.13980045240282
129.2283922276977
129.40480983019518
129.74208050244135
130.36526165908813
131.47823704752832
133.39747326723935
136.58923841635257
141.70284229041593
149.58856877125632
161.28647970365907
177.9740910372736
200.86785037860508
231.0849194431896
269.4846095662865
232.69609111552668
206.073933345643
185.60292348094524
170.60687925994444
160.1674522892019
153.27800104615483
148.96853713890215
146.41367241423998
144.97778146103366
144.21233595023298
143.82512051591007
143.63946608019288
143.5560541246795
143.523386366506
143.51812447016647
143.53406835766532
143.57800606866383
143.67123841219177
143.85660962257933
144.21179191447357
144.87006945797205
146.04953238611807
148.08999897022653
151.49385121530008
156.9624744614783
165.41512170603792
177.97411969621805
195.9018826870271
220.48377002086153
252.86589607181358
293.8736042396177
241.83070225164784
217.37116422669746
198.89291316856412
185.60291022210404
176.5622783309387
170.73484419423576
167.17675158454583
165.11899671647555
163.99140700150468
163.40557591328584
163.11688257252396
162.98225170745255
162.92393400257401
162.90322165235955
162.90395756539635
162.92403963579798
162.97313527439672
163.07568117585933
163.2793618002841
163.67019766438796
164.39576716737534
165.6975777511452
167.95162455404002
171.71237803815185
177.75019509731922
187.06646756804744
200.86786689919256
220.48377149598005
247.22232517881184
282.1836941923727
326.07432958178146
255.26584462660728
233.5545864346588
217.37116173536452
206.07394812377362
198.58513425123516
193.88077290646493
191.08242694541835
189.50632809148237
188.6654209703157
188.24011487946152
188.0361733781993
187.94391181324477
187.9059231344646
187.89507739538368
187.90168300899794
187.92773034887466
187.98662451137832
188.10794137681006
188.34788926869422
188.80689424110287
189.65603781196975
191.17307928755056
193.7861986883084
198.11900440785655
205.02427293532432
215.5882205882718
231.08493080660622
252.86590677065738
282.18368898498886
319.96674742337683
366.72348684330854
274.33215745352294
255.26583596280264
241.8307519123908
232.69613860094552
226.80086015459818
223.1970088187584
221.11159085990536
219.9691110288524
219.3762531376842
219.08461598268522
218.9487152903531
218.88951733817646
218.86740492062944
218.86515578719838
218.8789581410068
218.91547948616395
218.9936785310878
219.15191595414035
219.46094549191844
220.04477379410937
221.11077182585473
222.98896708774961
226.17682635949328
231.38072757477647
239.53912868702653
251.8072963078064
269.48462811095794
293.8736096994274
326.0742932014705
366.7234564306488
415.08291083115927
