# vtk DataFile Version 2.0
Unstructured Grid Example
ASCII
DATASET UNSTRUCTURED_GRID

POINTS 961 float
0.150000006 -0.00839745998 0
0.146666661 -0.00839745998 0
0.143333331 -0.00839745998 0
0.140000001 -0.00839745998 0
0.13666667 -0.00839745998 0
0.13333334 -0.00839745998 0
0.129999995 -0.00839745998 0
0.126666665 -0.00839745998 0
0.123333335 -0.00839745998 0
0.119999997 -0.00839745998 0
0.116666667 -0.00839745998 0
0.113333337 -0.00839745998 0
0.109999999 -0.00839745998 0
0.106666669 -0.00839745998 0
0.103333332 -0.00839745998 0
0.100000001 -0.00839745998 0
0.0966666639 -0.00839745998 0
0.0933333337 -0.00839745998 0
0.0900000036 -0.00839745998 0
0.086666666 -0.00839745998 0
0.0833333358 -0.00839745998 0
0.0799999982 -0.00839745998 0
0.0766666681 -0.00839745998 0
0.0733333305 -0.00839745998 0
0.0700000003 -0.00839745998 0
0.0666666701 -0.00839745998 0
0.0633333325 -0.00839745998 0
0.0599999987 -0.00839745998 0
0.0566666685 -0.00839745998 0
0.0533333346 -0.00839745998 0
0.0500000007 -0.00839745998 0
0.148333326 -0.0112842107 0
0.144999996 -0.0112842107 0
0.141666666 -0.0112842107 0
0.138333336 -0.0112842107 0
0.135000005 -0.0112842107 0
0.13166666 -0.0112842107 0
0.12833333 -0.0112842107 0
0.125 -0.0112842107 0
0.12166667 -0.0112842107 0
0.118333332 -0.0112842107 0
0.115000002 -0.0112842107 0
0.111666664 -0.0112842107 0
0.108333334 -0.0112842107 0
0.104999997 -0.0112842107 0
0.101666667 -0.0112842107 0
0.0983333364 -0.0112842107 0
0.0949999988 -0.0112842107 0
0.0916666687 -0.0112842107 0
0.088333331 -0.0112842107 0
0.0850000009 -0.0112842107 0
0.0816666633 -0.0112842107 0
0.0783333331 -0.0112842107 0
0.075000003 -0.0112842107 0
0.0716666654 -0.0112842107 0
0.0683333352 -0.0112842107 0
0.0649999976 -0.0112842107 0
0.0616666675 -0.0112842107 0
0.0583333336 -0.0112842107 0
0.0549999997 -0.0112842107 0
0.0516666658 -0.0112842107 0
0.0483333319 -0.0112842107 0
0.146666661 -0.0141709624 0
0.143333331 -0.0141709624 0
0.140000001 -0.0141709624 0
0.13666667 -0.0141709624 0
0.13333334 -0.0141709624 0
0.129999995 -0.0141709624 0
0.126666665 -0.0141709624 0
0.123333335 -0.0141709624 0
0.119999997 -0.0141709624 0
0.116666667 -0.0141709624 0
0.113333337 -0.0141709624 0
0.109999999 -0.0141709624 0
0.106666669 -0.0141709624 0
0.103333332 -0.0141709624 0
0.100000001 -0.0141709624 0
0.0966666639 -0.0141709624 0
0.0933333337 -0.0141709624 0
0.0900000036 -0.0141709624 0
0.086666666 -0.0141709624 0
0.0833333358 -0.0141709624 0
0.0799999982 -0.0141709624 0
0.0766666681 -0.0141709624 0
0.0733333305 -0.0141709624 0
0.0700000003 -0.0141709624 0
0.0666666701 -0.0141709624 0
0.0633333325 -0.0141709624 0
0.0599999987 -0.0141709624 0
0.0566666685 -0.0141709624 0
0.0533333346 -0.0141709624 0
0.0500000007 -0.0141709624 0
0.0466666669 -0.0141709624 0
0.144999996 -0.0170577131 0
0.141666666 -0.0170577131 0
0.138333336 -0.0170577131 0
0.135000005 -0.0170577131 0
0.13166666 -0.0170577131 0
0.12833333 -0.0170577131 0
0.125 -0.0170577131 0
0.12166667 -0.0170577131 0
0.118333332 -0.0170577131 0
0.115000002 -0.0170577131 0
0.111666664 -0.0170577131 0
0.108333334 -0.0170577131 0
0.104999997 -0.0170577131 0
0.101666667 -0.0170577131 0
0.0983333364 -0.0170577131 0
0.0949999988 -0.0170577131 0
0.0916666687 -0.0170577131 0
0.088333331 -0.0170577131 0
0.0850000009 -0.0170577131 0
0.0816666633 -0.0170577131 0
0.0783333331 -0.0170577131 0
0.075000003 -0.0170577131 0
0.0716666654 -0.0170577131 0
0.0683333352 -0.0170577131 0
0.0649999976 -0.0170577131 0
0.0616666675 -0.0170577131 0
0.0583333336 -0.0170577131 0
0.0549999997 -0.0170577131 0
0.0516666658 -0.0170577131 0
0.0483333319 -0.0170577131 0
0.0450000018 -0.0170577131 0
0.143333331 -0.0199444648 0
0.140000001 -0.0199444648 0
0.13666667 -0.0199444648 0
0.13333334 -0.0199444648 0
0.129999995 -0.0199444648 0
0.126666665 -0.0199444648 0
0.123333335 -0.0199444648 0
0.119999997 -0.0199444648 0
0.116666667 -0.0199444648 0
0.113333337 -0.0199444648 0
0.109999999 -0.0199444648 0
0.106666669 -0.0199444648 0
0.103333332 -0.0199444648 0
0.100000001 -0.0199444648 0
0.0966666639 -0.0199444648 0
0.0933333337 -0.0199444648 0
0.0900000036 -0.0199444648 0
0.086666666 -0.0199444648 0
0.0833333358 -0.0199444648 0
0.0799999982 -0.0199444648 0
0.0766666681 -0.0199444648 0
0.0733333305 -0.0199444648 0
0.0700000003 -0.0199444648 0
0.0666666701 -0.0199444648 0
0.0633333325 -0.0199444648 0
0.0599999987 -0.0199444648 0
0.0566666685 -0.0199444648 0
0.0533333346 -0.0199444648 0
0.0500000007 -0.0199444648 0
0.0466666669 -0.0199444648 0
0.043333333 -0.0199444648 0
0.141666666 -0.0228312165 0
0.138333336 -0.0228312165 0
0.135000005 -0.0228312165 0
0.13166666 -0.0228312165 0
0.12833333 -0.0228312165 0
0.125 -0.0228312165 0
0.12166667 -0.0228312165 0
0.118333332 -0.0228312165 0
0.115000002 -0.0228312165 0
0.111666664 -0.0228312165 0
0.108333334 -0.0228312165 0
0.104999997 -0.0228312165 0
0.101666667 -0.0228312165 0
0.0983333364 -0.0228312165 0
0.0949999988 -0.0228312165 0
0.0916666687 -0.0228312165 0
0.088333331 -0.0228312165 0
0.0850000009 -0.0228312165 0
0.0816666633 -0.0228312165 0
0.0783333331 -0.0228312165 0
0.075000003 -0.0228312165 0
0.0716666654 -0.0228312165 0
0.0683333352 -0.0228312165 0
0.0649999976 -0.0228312165 0
0.0616666675 -0.0228312165 0
0.0583333336 -0.0228312165 0
0.0549999997 -0.0228312165 0
0.0516666658 -0.0228312165 0
0.0483333319 -0.0228312165 0
0.0450000018 -0.0228312165 0
0.0416666679 -0.0228312165 0
0.140000001 -0.0257179681 0
0.13666667 -0.0257179681 0
0.13333334 -0.0257179681 0
0.129999995 -0.0257179681 0
0.126666665 -0.0257179681 0
0.123333335 -0.0257179681 0
0.119999997 -0.0257179681 0
0.116666667 -0.0257179681 0
0.113333337 -0.0257179681 0
0.109999999 -0.0257179681 0
0.106666669 -0.0257179681 0
0.103333332 -0.0257179681 0
0.100000001 -0.0257179681 0
0.0966666639 -0.0257179681 0
0.0933333337 -0.0257179681 0
0.0900000036 -0.0257179681 0
0.086666666 -0.0257179681 0
0.0833333358 -0.0257179681 0
0.0799999982 -0.0257179681 0
0.0766666681 -0.0257179681 0
0.0733333305 -0.0257179681 0
0.0700000003 -0.0257179681 0
0.0666666701 -0.0257179681 0
0.0633333325 -0.0257179681 0
0.0599999987 -0.0257179681 0
0.0566666685 -0.0257179681 0
0.0533333346 -0.0257179681 0
0.0500000007 -0.0257179681 0
0.0466666669 -0.0257179681 0
0.043333333 -0.0257179681 0
0.0399999991 -0.0257179681 0
0.138333336 -0.0286047198 0
0.135000005 -0.0286047198 0
0.13166666 -0.0286047198 0
0.12833333 -0.0286047198 0
0.125 -0.0286047198 0
0.12166667 -0.0286047198 0
0.118333332 -0.0286047198 0
0.115000002 -0.0286047198 0
0.111666664 -0.0286047198 0
0.108333334 -0.0286047198 0
0.104999997 -0.0286047198 0
0.101666667 -0.0286047198 0
0.0983333364 -0.0286047198 0
0.0949999988 -0.0286047198 0
0.0916666687 -0.0286047198 0
0.088333331 -0.0286047198 0
0.0850000009 -0.0286047198 0
0.0816666633 -0.0286047198 0
0.0783333331 -0.0286047198 0
0.075000003 -0.0286047198 0
0.0716666654 -0.0286047198 0
0.0683333352 -0.0286047198 0
0.0649999976 -0.0286047198 0
0.0616666675 -0.0286047198 0
0.0583333336 -0.0286047198 0
0.0549999997 -0.0286047198 0
0.0516666658 -0.0286047198 0
0.0483333319 -0.0286047198 0
0.0450000018 -0.0286047198 0
0.0416666679 -0.0286047198 0
0.038333334 -0.0286047198 0
0.13666667 -0.0314914696 0
0.13333334 -0.0314914696 0
0.129999995 -0.0314914696 0
0.126666665 -0.0314914696 0
0.123333335 -0.0314914696 0
0.119999997 -0.0314914696 0
0.116666667 -0.0314914696 0
0.113333337 -0.0314914696 0
0.109999999 -0.0314914696 0
0.106666669 -0.0314914696 0
0.103333332 -0.0314914696 0
0.100000001 -0.0314914696 0
0.0966666639 -0.0314914696 0
0.0933333337 -0.0314914696 0
0.0900000036 -0.0314914696 0
0.086666666 -0.0314914696 0
0.0833333358 -0.0314914696 0
0.0799999982 -0.0314914696 0
0.0766666681 -0.0314914696 0
0.0733333305 -0.0314914696 0
0.0700000003 -0.0314914696 0
0.0666666701 -0.0314914696 0
0.0633333325 -0.0314914696 0
0.0599999987 -0.0314914696 0
0.0566666685 -0.0314914696 0
0.0533333346 -0.0314914696 0
0.0500000007 -0.0314914696 0
0.0466666669 -0.0314914696 0
0.043333333 -0.0314914696 0
0.0399999991 -0.0314914696 0
0.0366666652 -0.0314914696 0
0.135000005 -0.0343782231 0
0.13166666 -0.0343782231 0
0.12833333 -0.0343782231 0
0.125 -0.0343782231 0
0.12166667 -0.0343782231 0
0.118333332 -0.0343782231 0
0.115000002 -0.0343782231 0
0.111666664 -0.0343782231 0
0.108333334 -0.0343782231 0
0.104999997 -0.0343782231 0
0.101666667 -0.0343782231 0
0.0983333364 -0.0343782231 0
0.0949999988 -0.0343782231 0
0.0916666687 -0.0343782231 0
0.088333331 -0.0343782231 0
0.0850000009 -0.0343782231 0
0.0816666633 -0.0343782231 0
0.0783333331 -0.0343782231 0
0.075000003 -0.0343782231 0
0.0716666654 -0.0343782231 0
0.0683333352 -0.0343782231 0
0.0649999976 -0.0343782231 0
0.0616666675 -0.0343782231 0
0.0583333336 -0.0343782231 0
0.0549999997 -0.0343782231 0
0.0516666658 -0.0343782231 0
0.0483333319 -0.0343782231 0
0.0450000018 -0.0343782231 0
0.0416666679 -0.0343782231 0
0.038333334 -0.0343782231 0
0.0350000001 -0.0343782231 0
0.13333334 -0.0372649729 0
0.129999995 -0.0372649729 0
0.126666665 -0.0372649729 0
0.123333335 -0.0372649729 0
0.119999997 -0.0372649729 0
0.116666667 -0.0372649729 0
0.113333337 -0.0372649729 0
0.109999999 -0.0372649729 0
0.106666669 -0.0372649729 0
0.103333332 -0.0372649729 0
0.100000001 -0.0372649729 0
0.0966666639 -0.0372649729 0
0.0933333337 -0.0372649729 0
0.0900000036 -0.0372649729 0
0.086666666 -0.0372649729 0
0.0833333358 -0.0372649729 0
0.0799999982 -0.0372649729 0
0.0766666681 -0.0372649729 0
0.0733333305 -0.0372649729 0
0.0700000003 -0.0372649729 0
0.0666666701 -0.0372649729 0
0.0633333325 -0.0372649729 0
0.0599999987 -0.0372649729 0
0.0566666685 -0.0372649729 0
0.0533333346 -0.0372649729 0
0.0500000007 -0.0372649729 0
0.0466666669 -0.0372649729 0
0.043333333 -0.0372649729 0
0.0399999991 -0.0372649729 0
0.0366666652 -0.0372649729 0
0.0333333351 -0.0372649729 0
0.13166666 -0.0401517227 0
0.12833333 -0.0401517227 0
0.125 -0.0401517227 0
0.12166667 -0.0401517227 0
0.118333332 -0.0401517227 0
0.115000002 -0.0401517227 0
0.111666664 -0.0401517227 0
[...]
POINT_DATA 961
SCALARS Temp float 1
LOOKUP_TABLE default
380.7709734702869
331.4559492870473
291.50325825675685
261.4801465336068
240.1830783548531
225.89919061439903
216.8268270334539
211.3592169548994
208.2250027983385
206.51148164497894
205.61544163822947
205.16595934459463
204.94904068050303
204.84805523467193
204.802597477699
204.78280420837714
204.77459276392585
204.77179611523167
204.77250978301353
204.7782075113879
204.79558857872374
204.84252130501378
204.9612929057138
205.24418589996765
205.87681862579575
207.20130449283624
209.79087891568062
214.51110340547527
222.52880879401516
235.2394129634037
254.39455257746016
331.4559764539634
284.3837037484242
248.05936133048232
221.45943217439037
203.0358983519116
190.95504399383236
183.44379351420443
179.00649191086404
176.50966384060703
175.16780386446473
174.47707293211752
174.1355338521288
173.97286591953358
173.89804675820415
173.86475328267358
173.85046988344493
173.84481147508106
173.84357963778373
173.84634797171634
173.85676961831615
173.88617425182912
173.96269195449136
174.15004484844783
174.58152508167862
175.5136705358312
177.39758907232172
180.95200587989018
187.20444996580085
197.4570637184653
213.15549596883935
235.23943928011886
291.5031833797436
248.05932788660078
215.08030878722593
191.3171990263852
175.07722875085634
164.54633521544983
158.05844347611168
154.25371181125024
152.12501232716545
150.98590020516022
150.40134348217384
150.11290841554498
149.97571293460405
149.9126610241527
149.8846406419775
149.87271609905034
149.86830508572328
149.86834605569828
149.87375792216443
149.89087968114487
149.9370318152337
150.05315729343755
150.32825948626115
150.94093513576843
152.22031283095458
154.71929816600493
159.27697012203242
167.02991621543626
179.32502933960868
197.4570559692495
222.52882920912057
261.4800473244042
221.45937856071848
191.317190179786
169.72684579323837
155.0276183502783
145.51340483941422
139.65319731542166
136.21304792089387
134.28456567629215
133.24990851426415
132.71735110369653
132.45372608762602
132.32791980015045
132.26992565535568
132.24411797882513
132.23324611710984
132.2296525268815
132.23112298392053
132.24007335791225
132.26613546243286
132.33380539309147
132.49858125746476
132.87640231720064
133.69072533501702
135.33663759248665
138.4500379263489
143.95361260731323
153.03721000813013
167.0299296874492
187.2044597859127
214.5110753081179
240.18297435248775
203.03584184748436
175.07720229893158
155.02766703084072
141.34215490808927
132.4524075444118
126.95401135872294
123.71194053396158
121.88640841590372
120.90276397525014
120.3944119867799
120.14183036510273
120.02089087683746
119.96499114484936
119.94011144772513
119.9298029999754
119.92697733021213
119.93023376602497
119.94370901164055
119.98082377821842
120.07393692914822
120.29352837314853
120.7813829152019
121.8006501384996
123.79934415825053
127.47184977175262
133.78829718287307
143.95360528115546
159.2769626117018
180.95199331640978
209.7908592808367
225.89908643652112
190.9550386037458
164.5463592810314
145.51337405438957
132.45239742050455
123.92339629021416
118.62183608413383
115.48164755744253
113.70636015268606
112.74642072703584
112.24881782908808
112.0009368181667
111.88199490377976
111.82694491997933
111.80249353642029
111.79260947659006
111.79065420546304
111.79609402056322
111.81496160025391
111.86468578701435
111.98546531234331
112.26173200325914
112.85755147324974
114.0673516177261
116.37643569451505
120.51432804112255
127.47184685093306
138.45003704033272
154.71929991595493
177.39756007675854
207.20129306076265
216.82678022984481
183.443789934398
158.05847842164005
139.65316816043799
126.9540033164515
118.6218354825743
113.4217610851904
110.3313992043841
108.57948634056956
107.63007405082128
107.13704150464609
106.8910828285536
106.77293734984332
106.71824181580924
106.69404345162037
106.68457855543717
106.68363459733634
106.69158502092455
106.71640249171534
106.77939308781153
106.92785007005016
107.25793472908458
107.95093267605655
109.32313426768084
111.88269955417583
116.37643254012193
123.79933683886767
135.33662628052886
152.2203075783052
175.51366717103133
205.87683160222315
211.3592037124699
179.00651236679397
154.25367182157757
136.21303143638264
123.71194543392157
115.48165829078964
110.33139861345205
107.26429355614822
105.52278591729356
104.57786186710507
104.08669785022256
103.8415000769829
103.72367057826654
103.66914662824206
103.64515434693534
103.63614278292728
103.63631980026925
103.64695436043685
103.67784094687721
103.75370321232317
103.92765711231608
104.30474997135299
105.07815850800348
106.577616944402
109.32313275397756
114.06734941967109
121.80065046123967
133.69072539432494
150.94092237454984
174.5815106276979
205.24419051306344
208.22500331116822
176.50972832154437
152.12499562744634
134.28456396410823
121.88641722637693
113.70635620789673
108.57948589672617
105.52279024450505
103.78573782599472
102.84265585562147
102.35223124518349
102.10732885866199
101.9896323535489
101.93521793066259
101.91142654685079
101.90289802755821
101.90423775545496
101.9175327044039
101.95414352581147
102.04153407719119
102.23714549207308
102.65207565846875
103.48678901972406
105.07815963878524
107.95093255274516
112.8575503907797
120.78138181718553
132.87639931406463
150.32826616765485
174.15005846216738
204.96132104842656
206.511608473325
175.16780452780165
150.98590870598903
133.2499184188496
120.90277997304214
112.74642140201595
107.6300780757864
104.5778610590195
102.84265515504924
101.90030403223261
101.4101666455368
101.16538110404419
101.04775274909655
100.99342993595131
100.96984168120393
100.96179965815364
100.96426150242476
100.98000027457098
101.02160582457381
101.1185393577189
101.33114357723169
101.77419900638577
102.65207482900072
104.30474962059267
107.25793467439573
112.26173183999171
120.29352905062224
132.49856767485772
150.05314698574026
173.96268175095415
204.842526447116
205.6156485237109
174.4770729398646
150.40134970405123
132.71736121455035
120.39440493947133
112.24881862362412
107.13704638372101
104.0866976199052
102.35223200676853
101.41016655326598
100.92014154624196
100.67540878717614
100.55782869944373
100.50359336259962
100.48020506604045
100.47262213862476
100.47609094937519
100.49391220566335
100.53955534166927
100.64380161465759
100.86874422219549
101.33114424047417
102.23714575596658
103.92765637493765
106.92784894271337
111.98546459549108
120.07393514088253
132.33380570504474
149.9370390161774
173.88618525456909
204.79557230615166
205.16594534521795
174.1355131248812
150.1129067640102
132.45373505622527
120.14182126241471
112.0009382489638
106.89107908639465
103.84150019928444
102.10732695583863
101.16538102618584
100.67540921028079
100.43071279655237
100.31317921268912
100.2590316936815
100.23583215720858
100.22865567524642
100.23296633435189
100.25243613270085
100.30110782631014
100.41055149895001
100.64380209888107
101.11853973407047
102.04153377964643
103.75370478773044
106.7793957060093
111.8646911954505
119.98082045256321
132.2661310782024
149.89088079214292
173.85676733516127
204.77819817749776
204.94898548991526
173.97284346016536
149.97571787951316
132.32790167818536
120.02088889231042
111.88200259670269
106.77293583395092
103.7236726706965
101.98963133032444
101.04775316212876
100.55782841994152
100.31317905598621
100.19570435197886
100.14165087997632
100.11862589684226
100.1117907969588
100.11676064093812
100.13744658246685
100.18823093096957
100.30110750472974
100.53955523793135
101.02160637004741
101.95414228527883
103.67784057036012
106.71640169323302
111.81496013046511
119.94370777279244
132.24007154264055
149.87376205249413
173.84632059881275
204.772523232184
204.84798133588757
173.89801548036536
149.9126673943134
132.26990846996932
119.96499110407429
111.82693805987402
106.71824139674685
103.66914446908628
101.93521725029859
100.99343062026601
100.5035930063023
100.2590316589159
100.1416508461641
100.08771248275974
100.06485531162294
100.05830039467774
100.06375986205832
100.08528674188838
100.13744653934509
100.25243621784732
100.49391214767645
100.98000064199941
101.9175326392975
103.646955834175
106.69158774039943
111.7960914951814
119.93022993565472
132.231117498296
149.8683449355447
173.84358318265126
204.7717978829935
204.80253946320624
173.8647444659394
149.8846175779981
132.2441144177938
119.94012234576665
111.80249120142854
106.69404722308411
103.64515360080387
101.91142638219728
100.96984146566497
100.48020502283157
100.23583225029738
100.11862586464976
100.06485534094504
100.04218135225459
100.03586540934333
100.0416805351494
100.06375983526983
100.11676056605943
100.23296622716457
100.47609097611488
100.96426128187362
101.90423660178298
103.63631930830942
106.68363339920417
111.79065316719786
119.92697592485709
132.2296507022086
149.86828859104892
173.84480330733604
204.77456320450435
204.7827602679218
173.85048235975418
149.8727024808418
132.23324747363003
119.92979276669807
111.7926083632465
106.68457449565209
103.63614266459007
101.90289851902114
100.9617994372336
100.47262217687027
100.22865542793689
100.11179080388102
100.05830035042646
100.03586540879704
100.02978129665382
100.03586542091526
100.05830036826887
100.11179088498842
100.22865554130603
100.47262205594188
100.96180004263054
101.90289798884412
103.63614430146774
106.68457680156428
111.79260685329007
119.9298002265031
132.2332407341864
149.87271758832074
173.85045282742635
204.78279459955252
204.77462530690053
173.8447989730025
149.86831260813386
132.229668050827
119.92697318988421
111.79065952774447
106.68363323803132
103.63632094122235
101.90423651756586
100.96426185875828
100.47609136011647
100.23296621399847
100.11676074428638
100.06375984954295
100.04168054632389
100.03586542929105
100.04218137004342
100.06485528611667
100.11862589731226
100.23583208222531
100.48020474356733
100.96984149424577
101.91142541963117
103.6451535484035
106.69404306116196
111.8024928375166
119.94011105823901
132.24410095188625
149.884635748109
173.86473586090727
204.8025937862974
204.77187847794235
173.84356745562707
149.86835377814495
132.23110492766529
119.93023126272679
111.79608706615936
106.69158466596495
103.64695666754271
101.91753148573913
100.98000087741254
100.49391192435986
100.25243605495797
100.13744650053631
100.08528671400808
100.06375988142558
100.05830040306822
100.0648553188794
100.08771252009124
100.14165089787076
100.25903159119927
100.50359329756415
100.99343028964195
101.93521808471952
103.66914568019631
106.7182404403768
111.82694309911173
119.96498803200782
132.26992424099325
149.9126541871131
173.89804433524125
204.84807996146782
204.77247030749157
173.84632789832136
149.87376811784765
132.24005554766904
119.9437099461192
111.81495528271438
106.71640187189301
103.67783893039051
101.95414257711889
101.02160669234911
100.53955498445679
100.30110775010473
100.18823088957772
100.13744655247437
100.11676063383733
100.1117907915669
100.11862587874238
100.14165091629762
100.19570430794235
100.31317901215466
100.55782862091718
101.04775303206071
101.98963204459773
103.72367162505667
106.7729393901959
111.88199961130147
120.02088674152618
132.3279234360246
149.97571651276178
173.9728754840667
204.94906040510804
204.77816264298403
173.85676766132454
149.8908576250486
132.26613113646394
119.9808129162125
111.86468615833647
106.77939721042982
103.7537028511574
102.04153428630373
101.11853934443396
100.64380179593493
100.41055141796414
100.30110775800405
100.25243617869673
100.23296635485215
100.22865567777731
100.23583217274728
100.25903171550033
100.31317917280904
100.43071292903473
100.67540901638564
101.16538143931763
102.10732754992242
103.84149955641978
106.891081911142
112.00093555812725
120.14182959438935
132.45371701167767
150.11290524346106
174.13553056944514
205.1659691393253
204.795560326604
173.88618374057353
149.93701455522654
132.3338084761354
120.07392795374251
111.98546533049459
106.92784640706789
103.92765706668742
102.23714642992132
101.331143785111
100.86874471693523
100.64380155654851
100.53955527828701
100.4939121755229
100.47609091422058
100.47262214360477
100.48020511373483
100.50359333333424
100.55782868933807
100.67540887333341
100.92014144120279
101.41016687956132
102.35223130427553
104.08669944561383
107.13704380533342
112.24881534378804
120.3944142934366
132.71734739758048
150.40134494175066
174.47707446497162
205.61544369274665
204.84251170849475
173.9626514748362
150.05314855450558
132.4985578782658
120.29352242525046
112.26173491232086
107.25793178490508
104.3047506601942
102.65207419817294
101.77419847090484
101.33114340371583
101.11853918313597
101.0216059072275
100.98000035172143
100.9642615145006
100.96179967190778
100.96984169572549
100.99342991074921
101.0477528002963
101.16538097613868
101.41016682531158
101.90030421958132
102.84265461667928
104.57786225719056
107.63007532908476
112.74642431059146
120.90276212055169
133.24990727276432
150.9859070609741
175.16780846099275
206.5114636118787
204.96135888390467
174.15004971866824
150.32828693003867
132.8764014087783
120.78139163576708
112.85755200423657
107.95093761873753
105.0781636478463
103.48679043077361
102.65207848055553
102.23714719883704
102.0415356352421
101.95414509588402
101.91753424240848
101.90423944949445
101.90289980610298
101.91142815801183
101.93521959440801
101.98963396407281
102.1073302426747
102.35223273047849
102.84265653269291
103.78573942525121
105.52278838239467
108.57948220416992
113.7063581085966
121.8864011640715
134.28455366153975
152.1250005680734
176.50962350258973
208.2249621242025
205.2441841144197
174.5815366314069
150.9409279861578
133.69072926797634
121.80066407523375
114.06735128135313
109.32313926601934
106.57761987158212
105.07816105340802
104.30475278044037
103.92765972420145
103.75370632646269
103.67784417477903
103.64695742324793
103.63632285204355
103.63614581097782
103.64515731916875
103.66914957587912
103.72367333917578
103.84150293493084
104.08670041783748
104.57786392146804
105.52278856260271
107.26429320866073
110.33140079998462
115.48164624420927
123.7119386093787
136.21303847786808
154.25370646443957
179.0064831302981
211.35923057746538
205.8768109839908
175.51369579184149
152.22030898183903
135.33663720357134
123.79933628225123
116.37643840690563
111.88270478468178
109.32313578460091
107.9509367910596
107.25793720942701
106.92785225539014
106.77939534701055
106.71640474866659
106.69158776031963
106.68363756019573
106.68458111381325
106.69404613630623
106.71824424291032
106.77293943344938
106.8910849532634
107.13704328310757
107.63007652456317
108.57948718882342
110.33139995824136
113.42176630311315
118.62183193938472
126.95401003702008
139.65319866091792
158.05844336669085
183.44380292063542
216.82686327670493
207.20133190565696
177.3975584549486
154.71929126441347
138.4500437109434
127.47184027960799
120.51433060591897
116.37643436896089
114.06735025523005
112.85755056558087
112.26173076581472
111.98546524583503
111.86468637155718
111.81496202548925
111.79609445251575
111.7906545105838
111.79260967060941
111.80249350445575
111.82694450736565
111.88199442632016
112.0009358394126
112.24881707354753
112.74642096955382
113.70635948828478
115.4816496469874
118.62183151511019
123.92339910768976
132.45241660101132
145.51342103530442
164.54635802948764
190.95506881939824
225.8991804789644
209.7908892301858
180.9519696168362
159.27695464032988
143.95358702632504
133.7882917005165
127.47184570598522
123.7993353285705
121.8006451294456
120.78137552894763
120.29352052183994
120.07392959287388
119.98081688397015
119.94370333587024
119.93022842760095
119.92697109072364
119.92979693698744
119.94010458196772
119.9649832620868
120.0208826362858
120.141822163762
120.39440491668891
120.90275700107253
121.88640314737145
123.71193886139109
126.95400578765644
132.45241200957827
141.34217884344548
155.0276405053658
175.0772030697953
203.03587344357288
240.18303086987493
214.51107085748663
187.2044596608767
167.02995525394329
153.03722211850902
143.95363775081086
138.45005718391536
135.33665509944208
133.6907418628602
132.8764175418103
132.49859885224106
132.3338254636589
132.26615617827758
132.24009377449772
132.23114263636683
132.22967215976448
132.23326518135946
132.24413558875892
132.26994197455923
132.32793481108357
132.45374241605228
132.71736987313938
133.24992797235433
134.28458680480398
136.21306445173826
139.65321829666343
145.51343584843994
155.02766452891132
169.7268432537621
191.31719228571419
221.4593974014151
261.4801097497768
222.52880270483382
197.45706935964213
179.32503632914404
167.02994332929504
159.27699873410546
154.71931716012898
152.2203337928921
150.94095099967186
150.32827422686742
150.0531752454822
149.93705385163148
149.8909033853186
149.87377989063665
149.86836689099303
149.86832734666393
149.87273617587036
149.88465647577846
149.91267414384524
149.97572648835623
150.112926135939
150.401364858034
150.98592428103356
152.12503674706124
154.2537318594892
158.0584697253931
164.5463715433266
175.07721779611944
191.31719572750185
215.08031154611115
248.05935029758254
291.5032761463748
235.2394100917239
213.15549733081497
197.45706796308497
187.20447539824445
180.9520174836656
177.39759505893247
175.51367147349345
174.58152002940562
174.15004372696367
173.96270706463847
173.88619395239084
173.8567795307637
173.84635475165638
173.84359236561465
173.84482484996866
173.8504754359576
173.86475169119097
173.8980395899684
173.97286541055308
174.13554533685124
174.4770896855538
175.16781770320526
176.50967131422146
179.0065050889637
183.44381531375882
190.95507597679403
203.03588265412475
221.45941064014247
248.05934618012833
284.38371237986115
331.45595656961456
254.3945063071831
235.239402268747
222.52885330159833
214.51111877489612
209.79087806233898
207.20130309101714
205.87680662902923
205.24414315330444
204.96129130915978
204.8425591678873
204.79559488829273
204.77819213693246
204.77251175169744
204.77181704514402
204.77459447514346
204.78279632045917
204.80256604406551
204.84802587258648
204.94903774366594
205.16598113620626
205.61545675605882
206.51147831131937
208.22500422878167
211.3592252909915
216.8268489310695
225.89916618711024
240.18304692335727
261.4801170305861
291.503240726412
331.45592605479476
380.77061499421103
