# vtk DataFile Version 2.0
Unstructured Grid Example
ASCII
DATASET UNSTRUCTURED_GRID

POINTS 961 float
0.150000006 -0.00839745998 0
0.146666661 -0.00839745998 0
0.143333331 -0.00839745998 0
0.140000001 -0.00839745998 0
0.13666667 -0.00839745998 0
0.13333334 -0.00839745998 0
0.129999995 -0.00839745998 0
0.126666665 -0.00839745998 0
0.123333335 -0.00839745998 0
0.119999997 -0.00839745998 0
0.116666667 -0.00839745998 0
0.113333337 -0.00839745998 0
0.109999999 -0.00839745998 0
0.106666669 -0.00839745998 0
0.103333332 -0.00839745998 0
0.100000001 -0.00839745998 0
0.0966666639 -0.00839745998 0
0.0933333337 -0.00839745998 0
0.0900000036 -0.00839745998 0
0.086666666 -0.00839745998 0
0.0833333358 -0.00839745998 0
0.0799999982 -0.00839745998 0
0.0766666681 -0.00839745998 0
0.0733333305 -0.00839745998 0
0.0700000003 -0.00839745998 0
0.0666666701 -0.00839745998 0
0.0633333325 -0.00839745998 0
0.0599999987 -0.00839745998 0
0.0566666685 -0.00839745998 0
0.0533333346 -0.00839745998 0
0.0500000007 -0.00839745998 0
0.148333326 -0.0112842107 0
0.144999996 -0.0112842107 0
0.141666666 -0.0112842107 0
0.138333336 -0.0112842107 0
0.135000005 -0.0112842107 0
0.13166666 -0.0112842107 0
0.12833333 -0.0112842107 0
0.125 -0.0112842107 0
0.12166667 -0.0112842107 0
0.118333332 -0.0112842107 0
0.115000002 -0.0112842107 0
0.111666664 -0.0112842107 0
0.108333334 -0.0112842107 0
0.104999997 -0.0112842107 0
0.101666667 -0.0112842107 0
0.0983333364 -0.0112842107 0
0.0949999988 -0.0112842107 0
0.0916666687 -0.0112842107 0
0.088333331 -0.0112842107 0
0.0850000009 -0.0112842107 0
0.0816666633 -0.0112842107 0
0.0783333331 -0.0112842107 0
0.075000003 -0.0112842107 0
0.0716666654 -0.0112842107 0
0.0683333352 -0.0112842107 0
0.0649999976 -0.0112842107 0
0.0616666675 -0.0112842107 0
0.0583333336 -0.0112842107 0
0.0549999997 -0.0112842107 0
0.0516666658 -0.0112842107 0
0.0483333319 -0.0112842107 0
0.146666661 -0.0141709624 0
0.143333331 -0.0141709624 0
0.140000001 -0.0141709624 0
0.13666667 -0.0141709624 0
0.13333334 -0.0141709624 0
0.129999995 -0.0141709624 0
0.126666665 -0.0141709624 0
0.123333335 -0.0141709624 0
0.119999997 -0.0141709624 0
0.116666667 -0.0141709624 0
0.113333337 -0.0141709624 0
0.109999999 -0.0141709624 0
0.106666669 -0.0141709624 0
0.103333332 -0.0141709624 0
0.100000001 -0.0141709624 0
0.0966666639 -0.0141709624 0
0.0933333337 -0.0141709624 0
0.0900000036 -0.0141709624 0
0.086666666 -0.0141709624 0
0.0833333358 -0.0141709624 0
0.0799999982 -0.0141709624 0
0.0766666681 -0.0141709624 0
0.0733333305 -0.0141709624 0
0.0700000003 -0.0141709624 0
0.0666666701 -0.0141709624 0
0.0633333325 -0.0141709624 0
0.0599999987 -0.0141709624 0
0.0566666685 -0.0141709624 0
0.0533333346 -0.0141709624 0
0.0500000007 -0.0141709624 0
0.0466666669 -0.0141709624 0
0.144999996 -0.0170577131 0
0.141666666 -0.0170577131 0
0.138333336 -0.0170577131 0
0.135000005 -0.0170577131 0
0.13166666 -0.0170577131 0
0.12833333 -0.0170577131 0
0.125 -0.0170577131 0
0.12166667 -0.0170577131 0
0.118333332 -0.0170577131 0
0.115000002 -0.0170577131 0
0.111666664 -0.0170577131 0
0.108333334 -0.0170577131 0
0.104999997 -0.0170577131 0
0.101666667 -0.0170577131 0
0.0983333364 -0.0170577131 0
0.0949999988 -0.0170577131 0
0.0916666687 -0.0170577131 0
0.088333331 -0.0170577131 0
0.0850000009 -0.0170577131 0
0.0816666633 -0.0170577131 0
0.0783333331 -0.0170577131 0
0.075000003 -0.0170577131 0
0.0716666654 -0.0170577131 0
0.0683333352 -0.0170577131 0
0.0649999976 -0.0170577131 0
0.0616666675 -0.0170577131 0
0.0583333336 -0.0170577131 0
0.0549999997 -0.0170577131 0
0.0516666658 -0.0170577131 0
0.0483333319 -0.0170577131 0
0.0450000018 -0.0170577131 0
0.143333331 -0.0199444648 0
0.140000001 -0.0199444648 0
0.13666667 -0.0199444648 0
0.13333334 -0.0199444648 0
0.129999995 -0.0199444648 0
0.126666665 -0.0199444648 0
0.123333335 -0.0199444648 0
0.119999997 -0.0199444648 0
0.116666667 -0.0199444648 0
0.113333337 -0.0199444648 0
0.109999999 -0.0199444648 0
0.106666669 -0.0199444648 0
0.103333332 -0.0199444648 0
0.100000001 -0.0199444648 0
0.0966666639 -0.0199444648 0
0.0933333337 -0.0199444648 0
0.0900000036 -0.0199444648 0
0.086666666 -0.0199444648 0
0.0833333358 -0.0199444648 0
0.0799999982 -0.0199444648 0
0.0766666681 -0.0199444648 0
0.0733333305 -0.0199444648 0
0.0700000003 -0.0199444648 0
0.0666666701 -0.0199444648 0
0.0633333325 -0.0199444648 0
0.0599999987 -0.0199444648 0
0.0566666685 -0.0199444648 0
0.0533333346 -0.0199444648 0
0.0500000007 -0.0199444648 0
0.0466666669 -0.0199444648 0
0.043333333 -0.0199444648 0
0.141666666 -0.0228312165 0
0.138333336 -0.0228312165 0
0.135000005 -0.0228312165 0
0.13166666 -0.0228312165 0
0.12833333 -0.0228312165 0
0.125 -0.0228312165 0
0.12166667 -0.0228312165 0
0.118333332 -0.0228312165 0
0.115000002 -0.0228312165 0
0.111666664 -0.0228312165 0
0.108333334 -0.0228312165 0
0.104999997 -0.0228312165 0
0.101666667 -0.0228312165 0
0.0983333364 -0.0228312165 0
0.0949999988 -0.0228312165 0
0.0916666687 -0.0228312165 0
0.088333331 -0.0228312165 0
0.0850000009 -0.0228312165 0
0.0816666633 -0.0228312165 0
0.0783333331 -0.0228312165 0
0.075000003 -0.0228312165 0
0.0716666654 -0.0228312165 0
0.0683333352 -0.0228312165 0
0.0649999976 -0.0228312165 0
0.0616666675 -0.0228312165 0
0.0583333336 -0.0228312165 0
0.0549999997 -0.0228312165 0
0.0516666658 -0.0228312165 0
0.0483333319 -0.0228312165 0
0.0450000018 -0.0228312165 0
0.0416666679 -0.0228312165 0
0.140000001 -0.0257179681 0
0.13666667 -0.0257179681 0
0.13333334 -0.0257179681 0
0.129999995 -0.0257179681 0
0.126666665 -0.0257179681 0
0.123333335 -0.0257179681 0
0.119999997 -0.0257179681 0
0.116666667 -0.0257179681 0
0.113333337 -0.0257179681 0
0.109999999 -0.0257179681 0
0.106666669 -0.0257179681 0
0.103333332 -0.0257179681 0
0.100000001 -0.0257179681 0
0.0966666639 -0.0257179681 0
0.0933333337 -0.0257179681 0
0.0900000036 -0.0257179681 0
0.086666666 -0.0257179681 0
0.0833333358 -0.0257179681 0
0.0799999982 -0.0257179681 0
0.0766666681 -0.0257179681 0
0.0733333305 -0.0257179681 0
0.0700000003 -0.0257179681 0
0.0666666701 -0.0257179681 0
0.0633333325 -0.0257179681 0
0.0599999987 -0.0257179681 0
0.0566666685 -0.0257179681 0
0.0533333346 -0.0257179681 0
0.0500000007 -0.0257179681 0
0.0466666669 -0.0257179681 0
0.043333333 -0.0257179681 0
0.0399999991 -0.0257179681 0
0.138333336 -0.0286047198 0
0.135000005 -0.0286047198 0
0.13166666 -0.0286047198 0
0.12833333 -0.0286047198 0
0.125 -0.0286047198 0
0.12166667 -0.0286047198 0
0.118333332 -0.0286047198 0
0.115000002 -0.0286047198 0
0.111666664 -0.0286047198 0
0.108333334 -0.0286047198 0
0.104999997 -0.0286047198 0
0.101666667 -0.0286047198 0
0.0983333364 -0.0286047198 0
0.0949999988 -0.0286047198 0
0.0916666687 -0.0286047198 0
0.088333331 -0.0286047198 0
0.0850000009 -0.0286047198 0
0.0816666633 -0.0286047198 0
0.0783333331 -0.0286047198 0
0.075000003 -0.0286047198 0
0.0716666654 -0.0286047198 0
0.0683333352 -0.0286047198 0
0.0649999976 -0.0286047198 0
0.0616666675 -0.0286047198 0
0.0583333336 -0.0286047198 0
0.0549999997 -0.0286047198 0
0.0516666658 -0.0286047198 0
0.0483333319 -0.0286047198 0
0.0450000018 -0.0286047198 0
0.0416666679 -0.0286047198 0
0.038333334 -0.0286047198 0
0.13666667 -0.0314914696 0
0.13333334 -0.0314914696 0
0.129999995 -0.0314914696 0
0.126666665 -0.0314914696 0
0.123333335 -0.0314914696 0
0.119999997 -0.0314914696 0
0.116666667 -0.0314914696 0
0.113333337 -0.0314914696 0
0.109999999 -0.0314914696 0
0.106666669 -0.0314914696 0
0.103333332 -0.0314914696 0
0.100000001 -0.0314914696 0
0.0966666639 -0.0314914696 0
0.0933333337 -0.0314914696 0
0.0900000036 -0.0314914696 0
0.086666666 -0.0314914696 0
0.0833333358 -0.0314914696 0
0.0799999982 -0.0314914696 0
0.0766666681 -0.0314914696 0
0.0733333305 -0.0314914696 0
0.0700000003 -0.0314914696 0
0.0666666701 -0.0314914696 0
0.0633333325 -0.0314914696 0
0.0599999987 -0.0314914696 0
0.0566666685 -0.0314914696 0
0.0533333346 -0.0314914696 0
0.0500000007 -0.0314914696 0
0.0466666669 -0.0314914696 0
0.043333333 -0.0314914696 0
0.0399999991 -0.0314914696 0
0.0366666652 -0.0314914696 0
0.135000005 -0.0343782231 0
0.13166666 -0.0343782231 0
0.12833333 -0.0343782231 0
0.125 -0.0343782231 0
0.12166667 -0.0343782231 0
0.118333332 -0.0343782231 0
0.115000002 -0.0343782231 0
0.111666664 -0.0343782231 0
0.108333334 -0.0343782231 0
0.104999997 -0.0343782231 0
0.101666667 -0.0343782231 0
0.0983333364 -0.0343782231 0
0.0949999988 -0.0343782231 0
0.0916666687 -0.0343782231 0
0.088333331 -0.0343782231 0
0.0850000009 -0.0343782231 0
0.0816666633 -0.0343782231 0
0.0783333331 -0.0343782231 0
0.075000003 -0.0343782231 0
0.0716666654 -0.0343782231 0
0.0683333352 -0.0343782231 0
0.0649999976 -0.0343782231 0
0.0616666675 -0.0343782231 0
0.0583333336 -0.0343782231 0
0.0549999997 -0.0343782231 0
0.0516666658 -0.0343782231 0
0.0483333319 -0.0343782231 0
0.0450000018 -0.0343782231 0
0.0416666679 -0.0343782231 0
0.038333334 -0.0343782231 0
0.0350000001 -0.0343782231 0
0.13333334 -0.0372649729 0
0.129999995 -0.0372649729 0
0.126666665 -0.0372649729 0
0.123333335 -0.0372649729 0
0.119999997 -0.0372649729 0
0.116666667 -0.0372649729 0
0.113333337 -0.0372649729 0
0.109999999 -0.0372649729 0
0.106666669 -0.0372649729 0
0.103333332 -0.0372649729 0
0.100000001 -0.0372649729 0
0.0966666639 -0.0372649729 0
0.0933333337 -0.0372649729 0
0.0900000036 -0.0372649729 0
0.086666666 -0.0372649729 0
0.0833333358 -0.0372649729 0
0.0799999982 -0.0372649729 0
0.0766666681 -0.0372649729 0
0.0733333305 -0.0372649729 0
0.0700000003 -0.0372649729 0
0.0666666701 -0.0372649729 0
0.0633333325 -0.0372649729 0
0.0599999987 -0.0372649729 0
0.0566666685 -0.0372649729 0
0.0533333346 -0.0372649729 0
0.0500000007 -0.0372649729 0
0.0466666669 -0.0372649729 0
0.043333333 -0.0372649729 0
0.0399999991 -0.0372649729 0
0.0366666652 -0.0372649729 0
0.0333333351 -0.0372649729 0
0.13166666 -0.0401517227 0
0.12833333 -0.0401517227 0
0.125 -0.0401517227 0
0.12166667 -0.0401517227 0
0.118333332 -0.0401517227 0
0.115000002 -0.0401517227 0
0.111666664 -0.0401517227 0
[...]
POINT_DATA 961
SCALARS Temp float 1
LOOKUP_TABLE default
389.9873734640881
340.89328041077863
300.683918115227
269.9905984282945
247.78922232553157
232.5514729619749
222.61593549217034
216.45203182433602
212.8065290922887
210.7465504217564
209.63168746277074
209.05235649846884
208.76257204440415
208.62270620337355
208.55743670212257
208.5279952018004
208.51537357739903
208.51095767069685
208.51200650013735
208.52052149720242
208.54546604505006
208.60970315387218
208.76467437855484
209.11710156059422
209.87150228775445
211.38820814206176
214.24687210830032
219.29228643674443
227.63082648172832
240.55865609177243
259.69891497482416
340.89330714192636
293.8564784485601
257.0609561913363
229.64853184450865
210.2625160480517
197.23924230345423
188.91902150036108
183.85563553053444
180.91457219818366
179.28035725400974
178.40958838545836
177.96355597676737
177.7433864775113
177.63841681707495
177.59001127538605
177.56851694205125
177.55974090560625
177.5577647584483
177.5619328939918
177.57719529659664
177.61838379797874
177.720602175773
177.95946879698056
178.48558327161035
179.5756508731137
181.6959083430395
185.56144714687358
192.16198390024545
202.72001300139848
218.57005852710668
240.55868249056314
300.68384242773953
257.060921988449
223.47341601772658
198.8419941589999
181.65215284500033
170.233691903269
163.00749901239183
158.64408348305227
156.1254731752708
154.7328862157317
153.99364263732758
153.61602069351522
153.429980951655
153.3414098338114
153.30065037938502
153.28272464550187
153.27591345370635
153.27592261601114
153.28397686028023
153.30854089133055
153.37181464483282
153.52379844060818
153.86798829481162
154.6024935894182
156.0766342169128
158.8540863955939
163.76043066358227
171.88101734085063
184.47218752328595
202.72000524640077
227.63084713337437
269.9904974300456
229.64847661231127
198.84198475685622
176.39664827087017
160.80299099938821
150.47231693802092
143.94150731818914
139.99717167079834
137.71771755499702
136.4549151111352
135.78291390410865
135.43868715588079
135.26860342193308
135.18740824204292
135.1500113716989
135.1337544841999
135.12825163702135
135.13043072039042
135.14354457298373
135.1802452917595
135.2713540717521
135.48345892703858
135.94925482173994
136.91323116673766
138.7899345042734
142.22171698147426
148.11002569224755
157.5850362693378
171.88103112957427
192.16199375398392
219.29225821780213
247.7891156271825
210.26245741815868
181.65212487373375
160.80304287865218
146.29439377188268
136.65607367059428
130.54169222832493
126.83440961232554
124.68320812434024
123.48659999465711
122.8473208320913
122.51864512969047
122.35569881789853
122.27770369924987
122.24178729296925
122.22645259493069
122.22215556564689
122.22697049576884
122.2464181668645
122.29786386186574
122.42140913916506
122.70047012615642
123.29543836435822
124.49149667920734
126.75522488360791
130.78413237381895
137.52211851386056
148.11001814521296
163.76042293521155
185.5614345991427
214.24685231450724
232.55136562679832
197.2392383737517
170.2337180660921
150.47228530122266
136.65606317982886
127.43315060969192
121.55459917875562
117.97447786677932
115.8886528169325
114.72420869957413
114.10013581582933
113.77839124125285
113.61851490175195
113.54188190394986
113.50667684174046
113.49203248826825
113.48906521457138
113.49703595158924
113.52391168765199
113.59196426999634
113.75043392408067
114.09826427481987
114.8195833323406
116.23155086186303
118.83737850274356
123.36762817528681
130.7841292325213
142.2217160766033
158.85408810876805
181.695878995808
211.3881969240384
222.6158893890463
188.9190189293958
163.0075355991405
143.94147735307166
130.54168374886174
121.55459844034336
115.80280222064492
112.2876124859623
110.23358285712162
109.08408478057375
108.46678183972011
108.14800702435096
107.98941393292353
107.91337615026538
107.87859716297845
107.86461727779219
107.86316143871075
107.87470639751974
107.90968452789647
107.99506272135346
108.18829105070712
108.60131654622889
109.43660446131102
111.03372008888277
113.91840536009397
118.83737510104717
126.75521712615527
138.78992263653336
156.07662911284822
179.5756475572818
209.87151518607024
216.45201923099359
183.8556570713958
158.6440426809911
139.9971544578059
126.83441511419404
117.9744895504147
112.28761176679997
108.80408608397124
106.76485969836115
105.6220300349142
105.00762596075622
104.6900830011049
104.53202362390353
104.4562823775024
104.42184358032566
104.40856594167597
104.40876066988938
104.42408713067586
104.46727075952947
104.56939282751412
104.7946261658892
105.2647828327303
106.19505118442211
107.93887103402899
111.03371840284532
116.23154839217989
124.49149714005743
136.9132312881398
154.60248053196815
178.48556870494932
209.11710615250323
212.80653058885298
180.91463785020932
156.12545688213524
137.71771612099604
124.68321754399804
115.88864841976122
110.23358225574147
106.7648647046285
104.73226618483577
103.59230057463617
102.97909768248502
102.66205574317863
102.50423044862127
102.42867799688823
102.39456267172177
102.38202138935647
102.38391144711406
102.40296268011079
102.45386248267526
102.57098795924196
102.82351938044074
103.34002944996637
104.343578538863
106.19505247537899
109.43660442995368
114.81958226794089
123.2954372143729
135.9492517413956
153.8679950426874
177.9594825980095
208.76470264282668
210.74667891478222
179.28035845890545
154.73289495169655
136.45492532236614
123.48661668915341
114.72420943774631
109.08408925208911
105.62202902958816
103.59229971753496
102.45352347081021
101.84080848279045
101.52397379684457
101.36627047217371
101.29087218377296
101.2570782789154
101.24527161476051
101.24878896601507
101.27125446608183
101.3288953814304
101.45850025833064
101.73263451361352
102.28403201726576
103.34002848404471
105.26478246651206
108.60131646144062
114.0982640540482
122.70047074484285
135.48344483605072
153.52378795754407
177.72059190618674
208.609708426317
209.6318954960261
178.4095886771038
153.99364886460563
135.78292446152497
122.84731327388421
114.1001366474218
108.46678720335188
105.0076257307244
102.9790985928653
101.840808365665
101.22829311013103
100.91155515694743
100.75393691396701
100.67868295846625
100.6452023769556
100.63408582182947
100.63906159545508
100.66444207815998
100.72756156536003
100.86681589669796
101.15683815140977
101.73263534628614
102.82351968948888
104.79462531560858
108.18828976546261
113.75043317335795
122.42140730790196
135.27135434337933
153.3718219999154
177.61839486399504
208.54544978075864
209.0523425200563
177.9635351056143
153.61601896749818
135.43869635104008
122.51863544171734
113.77839284418533
108.14800282809968
104.69008314336806
102.66205348299701
101.52397369239762
100.9115557046188
100.5948836577607
100.43734541705169
100.36223488865323
100.32904920541611
100.31854371582453
100.32474229380796
100.35244417964296
100.41971188669503
100.56591450468477
100.8668165127006
101.45850072604206
102.570987607112
104.56939467210596
107.9950656784755
113.59197012398309
122.2978603255117
135.18024073356426
153.30854205974558
177.57719308628222
208.52051215516826
208.7625164171957
177.7433635239991
153.42998584848056
135.26858447435785
122.35569670782246
113.61852316879555
107.989412239494
104.53202598712443
102.50422924255884
101.36627098066249
100.75393655336816
100.43734521187356
100.27990568435399
100.20494787868127
100.17203550355588
100.16204582690574
100.16920889173154
100.19864068980375
100.26884107654061
100.41971146011953
100.7275614305159
101.32889605758432
102.45386101427063
104.4672703125172
107.90968361964224
113.5239100983479
122.24641685738149
135.14354270776144
153.28398110442885
177.56190537369147
208.51201995964203
208.62263166871216
177.638385018736
153.34141614650244
135.18739031250655
122.27770364605597
113.5418743499544
107.91337567836004
104.45627986970827
102.42867718347189
101.29087302147911
100.67868250602797
100.36223484922917
100.20494783309144
100.13017495561103
100.09752629990007
100.08796397599801
100.09585209198511
100.12649747753991
100.19864063142896
100.35244429362798
100.66444200941133
101.2712549201438
102.40296259855096
104.42408882220842
107.874709437085
113.49703320835533
122.22696644549998
135.13042503795683
153.27592152774207
177.5577682441537
208.51095930246208
208.55737818436268
177.59000210529942
153.30062663662494
135.15000757696814
122.24179871164857
113.50667427704006
107.87860131363824
104.42184273067792
102.39456247581215
101.25707801068053
100.6452023257134
100.32904932747046
100.17203545958313
100.0975263416109
100.06516464381377
100.05597068465235
100.06439415341698
100.09585205472692
100.16920879014044
100.32474215271995
100.63906162681407
101.24878869031903
102.38391007392941
104.4087601023845
107.86316012110927
113.48906409092531
122.22215408528825
135.12824975423058
153.27589652268034
177.55973261966065
208.51534385458217
208.52795093733732
177.5685292195868
153.28271058056882
135.13375577654926
122.22644155614702
113.49203127770475
107.86461270666243
104.40856581346102
102.38202197063077
101.24527135048471
100.63408587359233
100.31854338987961
100.1620458375681
100.08796391376185
100.05597068403111
100.04713526754028
100.05597070152501
100.08796393937682
100.16204594667555
100.31854353936114
100.63408571894885
101.24527208790767
102.38202134617703
104.40856769355285
107.86461531842224
113.49202965468412
122.22644961202843
135.13374892183273
153.28272608365546
177.5684997175412
208.52798546530408
208.51540603820672
177.55972804873292
153.27592089289342
135.12826758473085
122.22215115666125
113.48907096194678
107.863159945059
104.4087620030698
102.38390997402034
101.24878940882725
100.63906211689945
100.32474213797869
100.16920903427655
100.09585207547407
100.06439416959134
100.05597071348521
100.06516466929705
100.09752626480271
100.17203550497383
100.3290491086296
100.64520197070624
101.25707805415479
102.3945613320119
104.42184268568076
107.87859671404266
113.50667608754306
122.24178686959036
135.14999366388494
153.30064540945438
177.5899936541464
208.5574330473118
208.5110397944769
177.55775228870712
153.27593037470643
135.13041184251205
122.22696787529036
113.49702837933974
107.87470603052955
104.42408978138972
102.40296124198747
101.27125521091499
100.66444172451587
100.3524440817711
100.198640577199
100.12649743828048
100.09585211979764
100.08796398737816
100.0975263104103
100.1301750075758
100.20494790371417
100.36223476034505
100.67868287464793
101.29087262186079
102.42867817795658
104.4562812908154
107.9133746189464
113.54187990941524
122.27770044520673
135.18740669171632
153.3414028857474
177.63841440534733
208.62273102774446
208.5119666500449
177.56191251979132
153.2839871410517
135.14352614475422
122.2464191593208
113.52390486150158
107.90968385773755
104.46726842153603
102.4538613702736
101.32889644963689
100.72756110825249
100.41971178203416
100.26884101919786
100.19864064801624
100.16920888216278
100.16204581986982
100.17203547709305
100.20494792854495
100.27990562494806
100.43734515327839
100.75393681281366
101.36627082024607
102.5042300983178
104.5320248087391
107.98941621452337
113.61851997909159
122.35569442648435
135.26860722446216
153.429984566735
177.74339617119057
208.7625919727688
208.52047636959696
177.57719329397236
153.30851838854153
135.18024090721428
122.29785235744733
113.59196470386317
107.99506735453886
104.56939246090187
102.57098820569543
101.4585002421788
100.86681613109661
100.56591439540419
100.41971179489836
100.35244424474892
100.32474231798327
100.3185437189273
100.32904922771743
100.36223491881113
100.43734536346012
100.59488383110372
100.91155546131414
101.52397420028076
102.66205420068079
104.6900823993453
108.14800602320868
113.77838994039803
122.5186442657102
135.43867777294957
153.6160175552309
177.96355290250239
209.0523663979717
208.54543775816418
177.6183933418055
153.37179720719942
135.27135725946593
122.42139973962264
113.75043401532504
108.18828691586104
104.79462611532132
102.82352047669725
101.73263478487688
101.15683877632033
100.86681581409552
100.72756148058362
100.66444203979015
100.63906155072216
100.63408582700012
100.64520243622083
100.67868291881042
100.7539368964734
100.91155527108326
101.22829297613269
101.84080876727413
102.97909776920633
105.00762782720888
108.46678435604196
114.1001330923077
122.8473233422705
135.78291016047984
153.9936440833791
178.4095899862673
209.63168957065946
208.609693816109
177.72056154128438
153.52378971451182
135.48343469466246
122.70046376915438
114.0982673535942
108.60131324747461
105.2647836477595
103.34002772040728
102.28403136442539
101.73263429066816
101.4585000381276
101.32889549761668
101.27125455071584
101.24878897831131
101.24527163215747
101.25707829574098
101.2908721496352
101.36627054012712
101.52397363010563
101.84080870825683
102.45352370893457
103.59229907361568
105.62203043501262
109.08408620839317
114.72421260651781
123.48659787141192
136.45491377121283
154.7328931838116
179.28036202695628
210.74653244774524
208.7647406295516
177.95947405771668
153.86801631516425
135.9492540436366
123.29544774053535
114.81958407630964
109.43661015647487
106.19505709808601
104.34358020088199
103.34003283689513
102.82352138907513
102.57098980609915
102.45386435247799
102.40296450911602
102.38391345969077
102.38202349109616
102.39456458009448
102.42867995763235
102.50423235460157
102.66205736568402
102.97909943750092
103.59230135056809
104.73226808445226
106.76486264910996
110.23357825679415
115.88865076241252
124.68320069306907
137.7177056079759
156.125461911095
180.91453171879837
212.8064886117454
209.1170998658978
178.48559507530996
154.6024863777343
136.91323547303364
124.49151162283573
116.23155054542626
111.03372570493022
107.93887434633892
106.19505408967483
105.26478605276692
104.79462916953196
104.56939644975961
104.46727444685504
104.4240906442988
104.40876417408282
104.40856941411013
104.42184698906284
104.4562857576967
104.53202676876656
104.69008627226893
105.00762890617527
105.62203233492745
106.76486274331455
108.80408569997218
112.28761429885151
117.97447666685217
126.8344080526852
139.9971619297595
158.64407835308768
183.85562713294303
216.4520463356491
209.87149480268485
179.57567636318325
156.07663061311897
138.78993403177526
126.75521656435859
118.83738150139393
113.91841112224508
111.03372172930284
109.43660915232077
108.6013192543779
108.1882934693348
107.99506524337745
107.90968704454845
107.87470944731712
107.86316471196785
107.8646201230364
107.87860012910399
107.91337883901762
107.98941623668141
108.14800938578566
108.46678376976911
109.08408756188085
110.23358370922715
112.28761321159192
115.80280807237993
121.55459454611544
130.54169083418142
143.94150895832172
163.00749939677894
188.9190319310038
222.6159735061477
211.38823586800126
181.69587733681655
158.85407930344238
142.22172287710677
130.7841223057402
123.36763091019236
118.83737692904828
116.23154927444777
114.81958229389397
114.09826291501912
113.75043391195284
113.59196483743857
113.52391211570308
113.49703639868372
113.48906552373788
113.49203267974117
113.50667677918315
113.54188141886817
113.61851436342256
113.77839019519824
114.10013495364275
114.72420899635642
115.88865199991339
117.97448020127348
121.55459397654467
127.43315347226499
136.65608328723388
150.47233421395921
170.23371622961218
197.23926897633507
232.55146107676666
214.24688199761104
185.56141061349416
163.76041465162214
148.1099991246171
137.52211272265006
130.78412800933884
126.7552153532984
124.49149152660385
123.29543040447233
122.70046175359018
122.42140134821325
122.29785653847726
122.2464121227316
122.22696477504486
122.22214893548787
122.22644610612008
122.24177996313344
122.27769531463963
122.35569007715291
122.51863640928569
122.847313395484
123.48659253783845
124.68320243332973
126.83440815774766
130.5416862106362
136.6560784684157
146.29441904552343
160.80301470420088
181.65212520108926
210.26248949786952
247.7891731572585
219.29225398901755
192.16199392270738
171.88105718470013
157.5850487172909
148.11005169850515
142.22173670601003
138.78995251382565
136.91324828681059
135.9492706588601
135.48347731775445
135.27137481641165
135.1802667485335
135.14356576242125
135.13045113537717
135.12827200677265
135.133774227421
135.15002959952258
135.18742514925907
135.26861902982057
135.43870406018215
135.78293337344127
136.45493516122636
137.71773958573968
139.99718837702028
143.94152903741687
150.47234956041663
160.80304001455397
176.3966456218649
198.84198767965393
229.64849731813175
269.9905621357615
227.63082063111608
202.72001864190236
184.47219445477603
171.88104486993282
163.76045975879958
158.85410553193495
156.07665588175735
154.6025096327551
153.86800328779015
153.5238167363597
153.37183709667514
153.308565054607
153.2839992519638
153.27594388588727
153.27593606809242
153.2827450230258
153.30066646634245
153.3414231838465
153.42999472548843
153.61603875923768
153.99366431424983
154.73291060174512
156.12549841829002
158.6441037920074
163.0075261556655
170.23373017962305
181.6521404380308
198.84199057627984
223.47341951577587
257.06094588475605
300.6839369464327
240.55865313251977
218.57005962029058
202.72001692459887
192.16200940093415
185.56145845525404
181.69591408277287
179.57565165993458
178.48557812414435
177.95946774126878
177.72061721153247
177.61840354023485
177.57720530368454
177.56193976894068
177.55777752151062
177.55975425151283
177.5685223899536
177.59000952561743
177.63840953276738
177.74338584869483
177.96356748491172
178.40960514490516
179.280371417988
180.9145794138765
183.85564893006017
188.91904433866426
197.23927649254966
210.2624993149149
229.64850983712913
257.06094144000485
293.8564880352676
340.8932886762471
259.6988684078475
240.55864505475125
227.6308709707675
219.2923018161348
214.24687098763906
211.38820700140482
209.87149003912552
209.11705858994034
208.7646726593849
208.60974105673475
208.5454724020257
208.5205061373521
208.5120084737596
208.51097852159887
208.51537515783107
208.5279871208104
208.5574050911157
208.62267662092842
208.76256903400187
209.05237822365206
209.63170253562933
210.7465475214918
212.80653047602843
216.45204071192975
222.6159590027383
232.55144667365957
247.7891899166209
269.99056887477127
300.6839012128633
340.8932581681966
389.98701731351747
