# vtk DataFile Version 2.0
Unstructured Grid Example
ASCII
DATASET UNSTRUCTURED_GRID

POINTS 961 float
0.150000006 -0.00839745998 0
0.146666661 -0.00839745998 0
0.143333331 -0.00839745998 0
0.140000001 -0.00839745998 0
0.13666667 -0.00839745998 0
0.13333334 -0.00839745998 0
0.129999995 -0.00839745998 0
0.126666665 -0.00839745998 0
0.123333335 -0.00839745998 0
0.119999997 -0.00839745998 0
0.116666667 -0.00839745998 0
0.113333337 -0.00839745998 0
0.109999999 -0.00839745998 0
0.106666669 -0.00839745998 0
0.103333332 -0.00839745998 0
0.100000001 -0.00839745998 0
0.0966666639 -0.00839745998 0
0.0933333337 -0.00839745998 0
0.0900000036 -0.00839745998 0
0.086666666 -0.00839745998 0
0.0833333358 -0.00839745998 0
0.0799999982 -0.00839745998 0
0.0766666681 -0.00839745998 0
0.0733333305 -0.00839745998 0
0.0700000003 -0.00839745998 0
0.0666666701 -0.00839745998 0
0.0633333325 -0.00839745998 0
0.0599999987 -0.00839745998 0
0.0566666685 -0.00839745998 0
0.0533333346 -0.00839745998 0
0.0500000007 -0.00839745998 0
0.148333326 -0.0112842107 0
0.144999996 -0.0112842107 0
0.141666666 -0.0112842107 0
0.138333336 -0.0112842107 0
0.135000005 -0.0112842107 0
0.13166666 -0.0112842107 0
0.12833333 -0.0112842107 0
0.125 -0.0112842107 0
0.12166667 -0.0112842107 0
0.118333332 -0.0112842107 0
0.115000002 -0.0112842107 0
0.111666664 -0.0112842107 0
0.108333334 -0.0112842107 0
0.104999997 -0.0112842107 0
0.101666667 -0.0112842107 0
0.0983333364 -0.0112842107 0
0.0949999988 -0.0112842107 0
0.0916666687 -0.0112842107 0
0.088333331 -0.0112842107 0
0.0850000009 -0.0112842107 0
0.0816666633 -0.0112842107 0
0.0783333331 -0.0112842107 0
0.075000003 -0.0112842107 0
0.0716666654 -0.0112842107 0
0.0683333352 -0.0112842107 0
0.0649999976 -0.0112842107 0
0.0616666675 -0.0112842107 0
0.0583333336 -0.0112842107 0
0.0549999997 -0.0112842107 0
0.0516666658 -0.0112842107 0
0.0483333319 -0.0112842107 0
0.146666661 -0.0141709624 0
0.143333331 -0.0141709624 0
0.140000001 -0.0141709624 0
0.13666667 -0.0141709624 0
0.13333334 -0.0141709624 0
0.129999995 -0.0141709624 0
0.126666665 -0.0141709624 0
0.123333335 -0.0141709624 0
0.119999997 -0.0141709624 0
0.116666667 -0.0141709624 0
0.113333337 -0.0141709624 0
0.109999999 -0.0141709624 0
0.106666669 -0.0141709624 0
0.103333332 -0.0141709624 0
0.100000001 -0.0141709624 0
0.0966666639 -0.0141709624 0
0.0933333337 -0.0141709624 0
0.0900000036 -0.0141709624 0
0.086666666 -0.0141709624 0
0.0833333358 -0.0141709624 0
0.0799999982 -0.0141709624 0
0.0766666681 -0.0141709624 0
0.0733333305 -0.0141709624 0
0.0700000003 -0.0141709624 0
0.0666666701 -0.0141709624 0
0.0633333325 -0.0141709624 0
0.0599999987 -0.0141709624 0
0.0566666685 -0.0141709624 0
0.0533333346 -0.0141709624 0
0.0500000007 -0.0141709624 0
0.0466666669 -0.0141709624 0
0.144999996 -0.0170577131 0
0.141666666 -0.0170577131 0
0.138333336 -0.0170577131 0
0.135000005 -0.0170577131 0
0.13166666 -0.0170577131 0
0.12833333 -0.0170577131 0
0.125 -0.0170577131 0
0.12166667 -0.0170577131 0
0.118333332 -0.0170577131 0
0.115000002 -0.0170577131 0
0.111666664 -0.0170577131 0
0.108333334 -0.0170577131 0
0.104999997 -0.0170577131 0
0.101666667 -0.0170577131 0
0.0983333364 -0.0170577131 0
0.0949999988 -0.0170577131 0
0.0916666687 -0.0170577131 0
0.088333331 -0.0170577131 0
0.0850000009 -0.0170577131 0
0.0816666633 -0.0170577131 0
0.0783333331 -0.0170577131 0
0.075000003 -0.0170577131 0
0.0716666654 -0.0170577131 0
0.0683333352 -0.0170577131 0
0.0649999976 -0.0170577131 0
0.0616666675 -0.0170577131 0
0.0583333336 -0.0170577131 0
0.0549999997 -0.0170577131 0
0.0516666658 -0.0170577131 0
0.0483333319 -0.0170577131 0
0.0450000018 -0.0170577131 0
0.143333331 -0.0199444648 0
0.140000001 -0.0199444648 0
0.13666667 -0.0199444648 0
0.13333334 -0.0199444648 0
0.129999995 -0.0199444648 0
0.126666665 -0.0199444648 0
0.123333335 -0.0199444648 0
0.119999997 -0.0199444648 0
0.116666667 -0.0199444648 0
0.113333337 -0.0199444648 0
0.109999999 -0.0199444648 0
0.106666669 -0.0199444648 0
0.103333332 -0.0199444648 0
0.100000001 -0.0199444648 0
0.0966666639 -0.0199444648 0
0.0933333337 -0.0199444648 0
0.0900000036 -0.0199444648 0
0.086666666 -0.0199444648 0
0.0833333358 -0.0199444648 0
0.0799999982 -0.0199444648 0
0.0766666681 -0.0199444648 0
0.0733333305 -0.0199444648 0
0.0700000003 -0.0199444648 0
0.0666666701 -0.0199444648 0
0.0633333325 -0.0199444648 0
0.0599999987 -0.0199444648 0
0.0566666685 -0.0199444648 0
0.0533333346 -0.0199444648 0
0.0500000007 -0.0199444648 0
0.0466666669 -0.0199444648 0
0.043333333 -0.0199444648 0
0.141666666 -0.0228312165 0
0.138333336 -0.0228312165 0
0.135000005 -0.0228312165 0
0.13166666 -0.0228312165 0
0.12833333 -0.0228312165 0
0.125 -0.0228312165 0
0.12166667 -0.0228312165 0
0.118333332 -0.0228312165 0
0.115000002 -0.0228312165 0
0.111666664 -0.0228312165 0
0.108333334 -0.0228312165 0
0.104999997 -0.0228312165 0
0.101666667 -0.0228312165 0
0.0983333364 -0.0228312165 0
0.0949999988 -0.0228312165 0
0.0916666687 -0.0228312165 0
0.088333331 -0.0228312165 0
0.0850000009 -0.0228312165 0
0.0816666633 -0.0228312165 0
0.0783333331 -0.0228312165 0
0.075000003 -0.0228312165 0
0.0716666654 -0.0228312165 0
0.0683333352 -0.0228312165 0
0.0649999976 -0.0228312165 0
0.0616666675 -0.0228312165 0
0.0583333336 -0.0228312165 0
0.0549999997 -0.0228312165 0
0.0516666658 -0.0228312165 0
0.0483333319 -0.0228312165 0
0.0450000018 -0.0228312165 0
0.0416666679 -0.0228312165 0
0.140000001 -0.0257179681 0
0.13666667 -0.0257179681 0
0.13333334 -0.0257179681 0
0.129999995 -0.0257179681 0
0.126666665 -0.0257179681 0
0.123333335 -0.0257179681 0
0.119999997 -0.0257179681 0
0.116666667 -0.0257179681 0
0.113333337 -0.0257179681 0
0.109999999 -0.0257179681 0
0.106666669 -0.0257179681 0
0.103333332 -0.0257179681 0
0.100000001 -0.0257179681 0
0.0966666639 -0.0257179681 0
0.0933333337 -0.0257179681 0
0.0900000036 -0.0257179681 0
0.086666666 -0.0257179681 0
0.0833333358 -0.0257179681 0
0.0799999982 -0.0257179681 0
0.0766666681 -0.0257179681 0
0.0733333305 -0.0257179681 0
0.0700000003 -0.0257179681 0
0.0666666701 -0.0257179681 0
0.0633333325 -0.0257179681 0
0.0599999987 -0.0257179681 0
0.0566666685 -0.0257179681 0
0.0533333346 -0.0257179681 0
0.0500000007 -0.0257179681 0
0.0466666669 -0.0257179681 0
0.043333333 -0.0257179681 0
0.0399999991 -0.0257179681 0
0.138333336 -0.0286047198 0
0.135000005 -0.0286047198 0
0.13166666 -0.0286047198 0
0.12833333 -0.0286047198 0
0.125 -0.0286047198 0
0.12166667 -0.0286047198 0
0.118333332 -0.0286047198 0
0.115000002 -0.0286047198 0
0.111666664 -0.0286047198 0
0.108333334 -0.0286047198 0
0.104999997 -0.0286047198 0
0.101666667 -0.0286047198 0
0.0983333364 -0.0286047198 0
0.0949999988 -0.0286047198 0
0.0916666687 -0.0286047198 0
0.088333331 -0.0286047198 0
0.0850000009 -0.0286047198 0
0.0816666633 -0.0286047198 0
0.0783333331 -0.0286047198 0
0.075000003 -0.0286047198 0
0.0716666654 -0.0286047198 0
0.0683333352 -0.0286047198 0
0.0649999976 -0.0286047198 0
0.0616666675 -0.0286047198 0
0.0583333336 -0.0286047198 0
0.0549999997 -0.0286047198 0
0.0516666658 -0.0286047198 0
0.0483333319 -0.0286047198 0
0.0450000018 -0.0286047198 0
0.0416666679 -0.0286047198 0
0.038333334 -0.0286047198 0
0.13666667 -0.0314914696 0
0.13333334 -0.0314914696 0
0.129999995 -0.0314914696 0
0.126666665 -0.0314914696 0
0.123333335 -0.0314914696 0
0.119999997 -0.0314914696 0
0.116666667 -0.0314914696 0
0.113333337 -0.0314914696 0
0.109999999 -0.0314914696 0
0.106666669 -0.0314914696 0
0.103333332 -0.0314914696 0
0.100000001 -0.0314914696 0
0.0966666639 -0.0314914696 0
0.0933333337 -0.0314914696 0
0.0900000036 -0.0314914696 0
0.086666666 -0.0314914696 0
0.0833333358 -0.0314914696 0
0.0799999982 -0.0314914696 0
0.0766666681 -0.0314914696 0
0.0733333305 -0.0314914696 0
0.0700000003 -0.0314914696 0
0.0666666701 -0.0314914696 0
0.0633333325 -0.0314914696 0
0.0599999987 -0.0314914696 0
0.0566666685 -0.0314914696 0
0.0533333346 -0.0314914696 0
0.0500000007 -0.0314914696 0
0.0466666669 -0.0314914696 0
0.043333333 -0.0314914696 0
0.0399999991 -0.0314914696 0
0.0366666652 -0.0314914696 0
0.135000005 -0.0343782231 0
0.13166666 -0.0343782231 0
0.12833333 -0.0343782231 0
0.125 -0.0343782231 0
0.12166667 -0.0343782231 0
0.118333332 -0.0343782231 0
0.115000002 -0.0343782231 0
0.111666664 -0.0343782231 0
0.108333334 -0.0343782231 0
0.104999997 -0.0343782231 0
0.101666667 -0.0343782231 0
0.0983333364 -0.0343782231 0
0.0949999988 -0.0343782231 0
0.0916666687 -0.0343782231 0
0.088333331 -0.0343782231 0
0.0850000009 -0.0343782231 0
0.0816666633 -0.0343782231 0
0.0783333331 -0.0343782231 0
0.075000003 -0.0343782231 0
0.0716666654 -0.0343782231 0
0.0683333352 -0.0343782231 0
0.0649999976 -0.0343782231 0
0.0616666675 -0.0343782231 0
0.0583333336 -0.0343782231 0
0.0549999997 -0.0343782231 0
0.0516666658 -0.0343782231 0
0.0483333319 -0.0343782231 0
0.0450000018 -0.0343782231 0
0.0416666679 -0.0343782231 0
0.038333334 -0.0343782231 0
0.0350000001 -0.0343782231 0
0.13333334 -0.0372649729 0
0.129999995 -0.0372649729 0
0.126666665 -0.0372649729 0
0.123333335 -0.0372649729 0
0.119999997 -0.0372649729 0
0.116666667 -0.0372649729 0
0.113333337 -0.0372649729 0
0.109999999 -0.0372649729 0
0.106666669 -0.0372649729 0
0.103333332 -0.0372649729 0
0.100000001 -0.0372649729 0
0.0966666639 -0.0372649729 0
0.0933333337 -0.0372649729 0
0.0900000036 -0.0372649729 0
0.086666666 -0.0372649729 0
0.0833333358 -0.0372649729 0
0.0799999982 -0.0372649729 0
0.0766666681 -0.0372649729 0
0.0733333305 -0.0372649729 0
0.0700000003 -0.0372649729 0
0.0666666701 -0.0372649729 0
0.0633333325 -0.0372649729 0
0.0599999987 -0.0372649729 0
0.0566666685 -0.0372649729 0
0.0533333346 -0.0372649729 0
0.0500000007 -0.0372649729 0
0.0466666669 -0.0372649729 0
0.043333333 -0.0372649729 0
0.0399999991 -0.0372649729 0
0.0366666652 -0.0372649729 0
0.0333333351 -0.0372649729 0
0.13166666 -0.0401517227 0
0.12833333 -0.0401517227 0
0.125 -0.0401517227 0
0.12166667 -0.0401517227 0
0.118333332 -0.0401517227 0
0.115000002 -0.0401517227 0
0.111666664 -0.0401517227 0
[...]
POINT_DATA 961
SCALARS Temp float 1
LOOKUP_TABLE default
166.9357398448489
137.21840656314285
128.3079882867547
126.29637214376726
125.83907049316839
125.73535782191905
125.71180005988668
125.70643371454813
125.7052145974066
125.7049368010027
125.70487050417728
125.70485969968024
125.70485623686345
125.70485503595631
125.70485768936389
125.70485409121078
125.70485457510142
125.7048520063913
125.70485534948205
125.70485492110136
125.70485490720634
125.70485779140013
125.70485505876619
125.70486154494326
125.70490212317969
125.70522596220803
125.70763276690039
125.72595664090109
125.87164753667423
127.02652407603948
140.6676631764787
137.2184320171014
112.70347397899936
107.41892112544136
106.21580992293322
105.94308638841736
105.88111383107024
105.86701150499881
105.86380562224774
105.86307493886378
105.86290822659474
105.86287257706061
105.86286174070688
105.8628593444853
105.86285943536296
105.86285648175598
105.86285902067098
105.86285909959463
105.86286120848764
105.86285916167289
105.86285903635059
105.86285942189332
105.8628568411868
105.86286175354081
105.86287925642775
105.86300881874654
105.86394263265232
105.87087371198763
105.92310020345356
106.31605063994316
109.58235510980072
127.02653447631188
128.30796733623313
107.41892126096464
102.71553552904173
101.65071203478404
101.40860287304713
101.35348548555687
101.34092887130132
101.33806765289455
101.33741469355071
101.33726564570212
101.33723210275551
101.33722424664256
101.33722249923792
101.33722184104984
101.33722237197577
101.3372218913831
101.3372217186634
101.33722206518102
101.33722199516255
101.33722202654656
101.33722179860968
101.33722336968762
101.33722932797654
101.33727426828091
101.3375960956951
101.33988110875826
101.35608134280831
101.46884908588049
102.24853704383865
106.3160456095908
125.87165586386665
126.29635160418222
106.21581019727982
101.65071310167731
100.61160760509622
100.37488847425158
100.320933275333
100.30863232323664
100.3058272732704
100.30518754956931
100.30504180266952
100.30500840666072
100.30500079717659
100.30499903657048
100.30499860066703
100.30499859903276
100.30499856554806
100.30499869108638
100.30499858367243
100.30499858186818
100.30499857044956
100.30499883797941
100.30500106916959
100.30501580602285
100.30511734282165
100.30580715131185
100.3104265893015
100.34037788223314
100.52552583495971
101.46884995438892
105.92310541142349
125.72594546868342
125.83905405117869
105.9430819766091
101.40860379692849
100.37488962811605
100.13919154044453
100.08544409845138
100.07318668840239
100.07039113599598
100.06975354078658
100.06960814167239
100.06957496802622
100.06956739563886
100.06956567104325
100.06956530691521
100.06956518979725
100.06956516258253
100.06956517683672
100.06956517370793
100.06956517791481
100.0695652734871
100.06956598325085
100.06957049339607
100.06960055774282
100.06979673283205
100.07104449511623
100.0786636047209
100.12238567853258
100.34037758485529
101.35608144168032
105.8708717005673
125.70762179245023
125.73533463430213
105.88111449479482
101.35348728189001
100.32093228030693
100.08544382419149
100.0317356527537
100.01948607200835
100.0166921863135
100.01605496530965
100.01590961811667
100.01587646615349
100.01586890556744
100.01586717897604
100.01586678973523
100.01586669948978
100.01586668602395
100.01586667637264
100.01586667788936
100.01586670742411
100.01586690951517
100.01586824243905
100.01587675735524
100.01593016897903
100.0162548759668
100.01814146228602
100.02841309846781
100.07866358852468
100.31042673083284
101.3398818768102
105.86393363623468
125.70521955909112
125.71177579359869
105.86701556590782
101.3409323044252
100.30863051386751
100.07318646045061
100.01948606862436
100.00723794263139
100.00444436373373
100.00380719699001
100.00366186859179
100.00362872173731
100.00362116161389
100.00361943872852
100.00361904400994
100.00361895400266
100.00361893470638
100.00361893098274
100.0036189388002
100.00361899764575
100.0036193740859
100.00362169932401
100.00363577433515
100.0037180456285
100.00417676980177
100.00657897880816
100.0181414539652
100.07104443922724
100.30580691113057
101.33759476842383
105.86300590322993
125.70491046876502
125.70642806865847
105.86380552091714
101.33806184160115
100.30582600494587
100.07039109531712
100.01669223426104
100.00444436426365
100.00165084183283
100.00101368325537
100.00086835820693
100.00083521198566
100.0008276517711
100.0008259276473
100.00082553433649
100.00082544505227
100.00082542467467
100.00082542257717
100.00082543812462
100.00082554034124
100.00082615835142
100.0008297766535
100.00085021064103
100.00096031432535
100.00151994783634
100.00417676778011
100.01625487431095
100.06979672224969
100.3051172011877
101.33727311172751
105.8628725669136
125.70486136135585
125.70518858536325
105.86308704073988
101.33740809377119
100.305187023998
100.06975363245958
100.0160549616114
100.00380719946244
100.00101368607875
100.00037652894395
100.00023120464462
100.00019805843735
100.00019049843641
100.0001887740317
100.00018838074078
100.00018829120005
100.00018827146188
100.00018827134134
100.00018829764035
100.00018845785993
100.00018936983729
100.00019436836747
100.00022054345948
100.00035049699241
100.00096031523505
100.00371804388703
100.01593015595094
100.06960054672142
100.305015590132
101.3372295420325
105.86286427986103
125.70486547297403
125.70496360424012
105.86289099364208
101.33726388444605
100.30504195853959
100.06960839771656
100.01590962377729
100.00366187617097
100.00086835856526
100.00023120452082
100.00008588001275
100.00005273391942
100.000045173847
100.00004344951341
100.0000430562729
100.00004296675591
100.00004294751312
100.00004294999832
100.00004298978926
100.00004321589613
100.00004442418928
100.00005060142202
100.00008069629547
100.00022054324063
100.00085020993173
100.00363577435961
100.01587675736673
100.06957050608949
100.30500054593303
101.33722172756298
105.86285308904299
125.70485669223727
125.70497313495417
105.862855553179
101.33723247514159
100.30500892727484
100.0695749696898
100.01587647431036
100.00362873176572
100.0008352114455
100.00019805860956
100.0000527339021
100.00001958784773
100.0000120277549
100.00001030343311
100.00000991019893
100.00000982081532
100.00000980219251
100.00000980777749
100.00000986217424
100.00001015129496
100.00001160072775
100.00001855432305
100.00005060145646
100.00019436843183
100.00082977620515
100.0036216976266
100.01586823867176
100.06956590684976
100.3049988242786
101.33722246012158
105.8628653074919
125.7048499642423
125.70485292016498
105.86285592429476
101.33722553148363
100.30500153689687
100.06956731076791
100.0158689136783
100.00362115797559
100.00082765168709
100.00019049797119
100.00004517384488
100.00001202777042
100.00000446767031
100.00000274335898
100.00000235015084
100.0000022609144
100.00000224299566
100.0000022517773
100.00000231948565
100.00000265782074
100.00000426140006
100.00001160074916
100.00004442422865
100.0001893697019
100.00082615895563
100.00361937627761
100.01586693114196
100.06956523989984
100.3049984382123
101.33722268356897
105.86285788095506
125.70484589874165
125.70483628021269
105.86286173782644
101.33722452572432
100.30499879185065
100.06956564851733
100.01586721829842
100.00361943425973
100.00082592915564
100.00018877372102
100.0000434495551
100.00001030342236
100.00000274335434
100.00000101905376
100.0000006258864
100.00000053681498
100.00000051959623
100.00000053118018
100.00000060891551
100.00000097791651
100.00000265781486
100.00001015129055
100.00004321594679
100.00018845749273
100.00082554020888
100.00361899744799
100.01586669938679
100.06956516877854
100.30499858485153
101.33722263558649
105.86284700900818
125.704861908022
125.70483039418113
105.86285756977588
101.3372244757677
100.30499800937787
100.06956527972497
100.01586677155792
100.00361904314316
100.00082553346171
100.00018838055102
100.0000430563393
100.00000991017794
100.0000023501487
100.00000062588603
100.00000023279011
100.0000001438998
100.00000012729109
100.00000014093096
100.00000022478652
100.00000060891497
100.00000231948707
100.00000986216818
100.00004298981663
100.0001882976204
100.00082543904395
100.00361894339078
100.01586667012748
100.06956514101239
100.30499841826524
101.33722088381107
105.86286244045125
125.70485777724983
125.70483619704736
105.86286034264468
101.3372203636839
100.30499835132473
100.06956535097521
100.01586668716924
100.00361896121049
100.00082544403425
100.00018829110256
100.00004296673897
100.00000982080908
100.00000226091684
100.00000053681454
100.00000014389994
100.00000005525294
100.00000003914282
100.00000005405064
100.00000014093075
100.00000053117937
100.00000225177456
100.00000980778005
100.00004294998459
100.00018827109645
100.00082542255346
100.00361892882349
100.0158666729785
100.06956515365829
100.30499848165913
101.33722060273763
105.8628581869313
125.70483978518386
125.7048286953546
105.86286521296898
101.33721954221504
100.30499861196887
100.06956510333454
100.01586667477198
100.00361892961122
100.00082542428517
100.00018827157947
100.00004294747266
100.0000098021935
100.00000224299121
100.00000051959624
100.00000012729095
100.0000000391427
100.00000002351983
100.00000003914283
100.00000012729093
100.0000005195972
100.00000224299308
100.00000980218695
100.00004294755595
100.00018827146435
100.0008254256464
100.0036189321928
100.01586667018582
100.06956514021745
100.30499836650847
101.33722283785448
105.86285382684505
125.70485089309783
125.70486084523807
105.86285211885883
101.33722223425902
100.30499929827556
100.06956510870737
100.01586670018995
100.00361892648823
100.000825422942
100.00018827107218
100.00004295002778
100.00000980780027
100.00000225177399
100.0000005311811
100.0000001409308
100.0000000540507
100.00000003914282
100.00000005525298
100.00000014389956
100.00000053681484
100.00000226091275
100.00000982080081
100.00004296674395
100.0001882909638
100.00082544417725
100.0036189535158
100.01586669758254
100.06956520949815
100.30499811679253
101.33722144683836
105.86285276434803
125.70485220753699
125.70490375598679
105.86285222940778
101.33722309236177
100.30499821388649
100.06956512024234
100.01586665013696
100.00361893661197
100.0008254396138
100.00018829729906
100.00004298985571
100.00000986216185
100.00000231948306
100.00000060891493
100.00000022478642
100.00000014093105
100.00000012729124
100.0000001438997
100.00000023279024
100.00000062588641
100.00000235014718
100.0000099101957
100.00004305629919
100.00018838077894
100.00082553378301
100.00361904221562
100.0158667865971
100.06956523664537
100.30499864909729
101.33722099470745
105.86285712456406
125.70486792795755
125.70484008000481
105.86285526955601
101.33722447467021
100.30499787128853
100.06956518459371
100.01586667292209
100.00361899668695
100.00082553964113
100.00018845756898
100.0000432160046
100.0000101512796
100.00000265782049
100.00000097791624
100.00000060891549
100.00000053118
100.00000051959613
100.00000053681481
100.00000062588663
100.00000101905319
100.00000274335429
100.00001030342966
100.00004344954797
100.00018877388666
100.0008259282141
100.00361944096011
100.01586720098076
100.06956562792514
100.3049990882651
101.33722257631179
105.86286056062393
125.70485960750355
125.70483629176282
105.86286259511542
101.33722042187381
100.30499817106553
100.06956515559345
100.01586690778288
100.0036193804428
100.00082615783785
100.00018936990979
100.00004442420551
100.00001160073232
100.00000426139967
100.00000265782015
100.00000231948579
100.00000225177835
100.00000224299554
100.0000022609141
100.00000235015135
100.00000274335827
100.00000446767397
100.00001202775901
100.00004517389246
100.00019049806151
100.0008276516232
100.00362116111539
100.01586889618274
100.06956740273588
100.30500042329007
101.33722359169168
105.86285724025956
125.70486070401297
125.70484315338739
105.86286555069321
101.33721855495787
100.30499895661283
100.06956582722495
100.01586824301089
100.00362169620772
100.00082977661759
100.00019436868375
100.00005060140862
100.00001855434768
100.00001160073231
100.00001015129428
100.00000986217046
100.00000980777534
100.00000980219201
100.00000982081906
100.00000991019841
100.00001030343421
100.00001202775675
100.00001958784404
100.00005273394441
100.0001980584069
100.00083521281854
100.00362872590075
100.01587645738017
100.06957497208195
100.30500818612879
101.33723167177033
105.86287098286783
125.70487749740597
125.70483813087694
105.8628406571672
101.3372212183842
100.30500039084252
100.06957044011021
100.01587677959208
100.00363576952235
100.00085021078539
100.0002205431462
100.00008069623037
100.00005060141697
100.00004442418398
100.00004321589095
100.00004298980865
100.00004294999546
100.00004294750929
100.00004296676596
100.00004305626675
100.00004344951472
100.00004517384488
100.00005273393823
100.00008588003088
100.00023120446481
100.00086835887669
100.00366186974854
100.0159096334536
100.06960810708821
100.30504158501566
101.33726667616526
105.862911150219
125.70492433215908
125.70488614642046
105.86285749068335
101.3372324775931
100.30501566892976
100.06960063885612
100.01593016249826
100.00371804868881
100.00096031733514
100.0003504973524
100.00022054402812
100.00019436890996
100.00018937024086
100.00018845819537
100.0001882980184
100.00018827176186
100.00018827196706
100.00018829161847
100.00018838117862
100.00018877445976
100.00019049883106
100.000198058898
100.00023120495794
100.00037652940075
100.00101368389484
100.00380719097957
100.0160549456119
100.06975344386383
100.30518712502568
101.3374136315977
105.86306086568122
125.70519149429425
125.70486301411061
105.86288114949963
101.33727414409525
100.30511717835022
100.06979686296968
100.0162548648075
100.00417677560233
100.00151995011636
100.0009603162429
100.00085021244085
100.00082977840944
100.00082616007799
100.00082554259454
100.00082544000931
100.00082542448254
100.00082542681471
100.00082544680839
100.00082553621674
100.00082592958202
100.00082765384597
100.00083521378892
100.0008683599618
100.00101368497532
100.00165084087202
100.004444365238
100.01669216773594
100.07039106348705
100.30582693805509
101.33806597520838
105.86380362501582
125.70644405699963
125.70489513573426
105.86301755434037
101.33759428359926
100.30580705316889
100.0710444206527
100.01814146803545
100.00657898830694
100.00417677418098
100.00371805079736
100.00363578056484
100.00362170289833
100.00361937648253
100.00361900113566
100.0036189434051
100.00361893713509
100.00361893872744
100.00361895829714
100.0036190484634
100.0036194427235
100.00362116651613
100.00362872540322
100.00366187224478
100.00380719964846
100.00444436744223
100.00723794858172
100.01948605871468
100.07318662347092
100.30863211889505
101.34092863068567
105.86701584467885
125.71180736195092
125.70523644839464
105.86393144855936
101.3398799720631
100.31042702861753
100.07866349052625
100.02841311104974
100.01814147099006
100.01625488033943
100.01593016536087
100.0158767534821
100.01586823839793
100.01586691673248
100.01586670951588
100.01586668065445
100.0158666809131
100.01586668200552
100.01586669981687
100.01586679251422
100.01586718277944
100.01586890282096
100.01587646394468
100.0159096185791
100.01605496067624
100.01669219042614
100.01948606640403
100.03173567749525
100.08544415943074
100.32093371277728
101.35348710925399
105.88111515729776
125.73536617230978
125.70763969222875
105.87086099416192
101.35608078730176
100.34037724547905
100.12238559591226
100.07866355751877
100.07104443540452
100.06979665596185
100.06960050901978
100.0695703948417
100.06956586485832
100.06956518757262
100.06956511980091
100.0695651301539
100.06956508181017
100.06956508298678
100.06956512457008
100.06956522465738
100.06956559707768
100.06956729861211
100.0695748716074
100.06960804989184
100.06975348990159
100.07039107703429
100.0731865807721
100.08544408890162
100.13919195958806
100.37488876034682
101.40860305012983
105.94308397480347
125.83906341051879
125.72593945465151
105.92310294823461
101.46885324052374
100.5255262771956
100.34037866644502
100.31042749991202
100.30580785696411
100.3051178928416
100.30501635720425
100.30500161265084
100.3049996567933
100.30499935666796
100.30499930284402
100.30499925675039
100.30499924590856
100.30499928855615
100.30499932966988
100.30499929537282
100.30499960818851
100.30500136423177
100.30500910386966
100.30504242962196
100.30518829169732
100.30582794103032
100.30863295054588
100.32093436413876
100.374889465208
100.61160722078176
101.6507101906473
106.21579776744969
126.29635088822558
125.87164410226853
106.31605293127895
102.24853860561784
101.46885182655902
101.35608450719148
101.33988361740077
101.33759832265092
101.33727710707718
101.33723106886168
101.33722497178427
101.33722457486778
101.3372249793637
101.33722463869445
101.33722387649229
101.337224429384
101.33722469898748
101.33722450677502
101.33722420471273
101.33722417648902
101.3372263987378
101.33723450037671
101.3372687866354
101.33741725076064
101.33806930888184
101.34093165368533
101.35348857929174
101.40860479854018
101.65071283140338
102.7155339830731
107.41891715050838
128.30800407587353
127.02652384393403
109.5823604105842
106.31605544322564
105.92310754159156
105.87088028147826
105.86394607981435
105.86300990842024
105.86287901679412
105.86286186095406
105.86286633834663
105.86286699894129
105.86286140122775
105.8628606264101
105.86286456425404
105.8628649664365
105.86286276092265
105.8628605722912
105.86285873527247
105.8628612722287
105.86286708985918
105.86287703407703
105.86291221147826
105.86307758622017
105.86381013448695
105.86702080108333
105.88111811460737
105.9430848666169
106.21581168868225
107.41892194009142
112.70348971433005
137.21844078306015
140.66763277419244
127.02652473214923
125.8716748877243
125.725961586548
125.70763118328063
125.7052258905676
125.70490422391805
125.70483803300515
125.70485715589456
125.70488074609011
125.7048563135388
125.70484365265983
125.7048562826927
125.70486833184015
125.70485651017042
125.70485517181595
125.70484244252603
125.70484277558933
125.70485718603308
125.70487335385272
125.7048808379637
125.70493164221419
125.70521571896049
125.7064368769437
125.71180185032792
125.73536021711789
125.83907074850464
126.29636891069029
128.30799214933677
137.21842438268976
166.93559108321628
