# vtk DataFile Version 2.0
Unstructured Grid Example
ASCII
DATASET UNSTRUCTURED_GRID

POINTS 961 float
0.150000006 -0.00839745998 0
0.146666661 -0.00839745998 0
0.143333331 -0.00839745998 0
0.140000001 -0.00839745998 0
0.13666667 -0.00839745998 0
0.13333334 -0.00839745998 0
0.129999995 -0.00839745998 0
0.126666665 -0.00839745998 0
0.123333335 -0.00839745998 0
0.119999997 -0.00839745998 0
0.116666667 -0.00839745998 0
0.113333337 -0.00839745998 0
0.109999999 -0.00839745998 0
0.106666669 -0.00839745998 0
0.103333332 -0.00839745998 0
0.100000001 -0.00839745998 0
0.0966666639 -0.00839745998 0
0.0933333337 -0.00839745998 0
0.0900000036 -0.00839745998 0
0.086666666 -0.00839745998 0
0.0833333358 -0.00839745998 0
0.0799999982 -0.00839745998 0
0.0766666681 -0.00839745998 0
0.0733333305 -0.00839745998 0
0.0700000003 -0.00839745998 0
0.0666666701 -0.00839745998 0
0.0633333325 -0.00839745998 0
0.0599999987 -0.00839745998 0
0.0566666685 -0.00839745998 0
0.0533333346 -0.00839745998 0
0.0500000007 -0.00839745998 0
0.148333326 -0.0112842107 0
0.144999996 -0.0112842107 0
0.141666666 -0.0112842107 0
0.138333336 -0.0112842107 0
0.135000005 -0.0112842107 0
0.13166666 -0.0112842107 0
0.12833333 -0.0112842107 0
0.125 -0.0112842107 0
0.12166667 -0.0112842107 0
0.118333332 -0.0112842107 0
0.115000002 -0.0112842107 0
0.111666664 -0.0112842107 0
0.108333334 -0.0112842107 0
0.104999997 -0.0112842107 0
0.101666667 -0.0112842107 0
0.0983333364 -0.0112842107 0
0.0949999988 -0.0112842107 0
0.0916666687 -0.0112842107 0
0.088333331 -0.0112842107 0
0.0850000009 -0.0112842107 0
0.0816666633 -0.0112842107 0
0.0783333331 -0.0112842107 0
0.075000003 -0.0112842107 0
0.0716666654 -0.0112842107 0
0.0683333352 -0.0112842107 0
0.0649999976 -0.0112842107 0
0.0616666675 -0.0112842107 0
0.0583333336 -0.0112842107 0
0.0549999997 -0.0112842107 0
0.0516666658 -0.0112842107 0
0.0483333319 -0.0112842107 0
0.146666661 -0.0141709624 0
0.143333331 -0.0141709624 0
0.140000001 -0.0141709624 0
0.13666667 -0.0141709624 0
0.13333334 -0.0141709624 0
0.129999995 -0.0141709624 0
0.126666665 -0.0141709624 0
0.123333335 -0.0141709624 0
0.119999997 -0.0141709624 0
0.116666667 -0.0141709624 0
0.113333337 -0.0141709624 0
0.109999999 -0.0141709624 0
0.106666669 -0.0141709624 0
0.103333332 -0.0141709624 0
0.100000001 -0.0141709624 0
0.0966666639 -0.0141709624 0
0.0933333337 -0.0141709624 0
0.0900000036 -0.0141709624 0
0.086666666 -0.0141709624 0
0.0833333358 -0.0141709624 0
0.0799999982 -0.0141709624 0
0.0766666681 -0.0141709624 0
0.0733333305 -0.0141709624 0
0.0700000003 -0.0141709624 0
0.0666666701 -0.0141709624 0
0.0633333325 -0.0141709624 0
0.0599999987 -0.0141709624 0
0.0566666685 -0.0141709624 0
0.0533333346 -0.0141709624 0
0.0500000007 -0.0141709624 0
0.0466666669 -0.0141709624 0
0.144999996 -0.0170577131 0
0.141666666 -0.0170577131 0
0.138333336 -0.0170577131 0
0.135000005 -0.0170577131 0
0.13166666 -0.0170577131 0
0.12833333 -0.0170577131 0
0.125 -0.0170577131 0
0.12166667 -0.0170577131 0
0.118333332 -0.0170577131 0
0.115000002 -0.0170577131 0
0.111666664 -0.0170577131 0
0.108333334 -0.0170577131 0
0.104999997 -0.0170577131 0
0.101666667 -0.0170577131 0
0.0983333364 -0.0170577131 0
0.0949999988 -0.0170577131 0
0.0916666687 -0.0170577131 0
0.088333331 -0.0170577131 0
0.0850000009 -0.0170577131 0
0.0816666633 -0.0170577131 0
0.0783333331 -0.0170577131 0
0.075000003 -0.0170577131 0
0.0716666654 -0.0170577131 0
0.0683333352 -0.0170577131 0
0.0649999976 -0.0170577131 0
0.0616666675 -0.0170577131 0
0.0583333336 -0.0170577131 0
0.0549999997 -0.0170577131 0
0.0516666658 -0.0170577131 0
0.0483333319 -0.0170577131 0
0.0450000018 -0.0170577131 0
0.143333331 -0.0199444648 0
0.140000001 -0.0199444648 0
0.13666667 -0.0199444648 0
0.13333334 -0.0199444648 0
0.129999995 -0.0199444648 0
0.126666665 -0.0199444648 0
0.123333335 -0.0199444648 0
0.119999997 -0.0199444648 0
0.116666667 -0.0199444648 0
0.113333337 -0.0199444648 0
0.109999999 -0.0199444648 0
0.106666669 -0.0199444648 0
0.103333332 -0.0199444648 0
0.100000001 -0.0199444648 0
0.0966666639 -0.0199444648 0
0.0933333337 -0.0199444648 0
0.0900000036 -0.0199444648 0
0.086666666 -0.0199444648 0
0.0833333358 -0.0199444648 0
0.0799999982 -0.0199444648 0
0.0766666681 -0.0199444648 0
0.0733333305 -0.0199444648 0
0.0700000003 -0.0199444648 0
0.0666666701 -0.0199444648 0
0.0633333325 -0.0199444648 0
0.0599999987 -0.0199444648 0
0.0566666685 -0.0199444648 0
0.0533333346 -0.0199444648 0
0.0500000007 -0.0199444648 0
0.0466666669 -0.0199444648 0
0.043333333 -0.0199444648 0
0.141666666 -0.0228312165 0
0.138333336 -0.0228312165 0
0.135000005 -0.0228312165 0
0.13166666 -0.0228312165 0
0.12833333 -0.0228312165 0
0.125 -0.0228312165 0
0.12166667 -0.0228312165 0
0.118333332 -0.0228312165 0
0.115000002 -0.0228312165 0
0.111666664 -0.0228312165 0
0.108333334 -0.0228312165 0
0.104999997 -0.0228312165 0
0.101666667 -0.0228312165 0
0.0983333364 -0.0228312165 0
0.0949999988 -0.0228312165 0
0.0916666687 -0.0228312165 0
0.088333331 -0.0228312165 0
0.0850000009 -0.0228312165 0
0.0816666633 -0.0228312165 0
0.0783333331 -0.0228312165 0
0.075000003 -0.0228312165 0
0.0716666654 -0.0228312165 0
0.0683333352 -0.0228312165 0
0.0649999976 -0.0228312165 0
0.0616666675 -0.0228312165 0
0.0583333336 -0.0228312165 0
0.0549999997 -0.0228312165 0
0.0516666658 -0.0228312165 0
0.0483333319 -0.0228312165 0
0.0450000018 -0.0228312165 0
0.0416666679 -0.0228312165 0
0.140000001 -0.0257179681 0
0.13666667 -0.0257179681 0
0.13333334 -0.0257179681 0
0.129999995 -0.0257179681 0
0.126666665 -0.0257179681 0
0.123333335 -0.0257179681 0
0.119999997 -0.0257179681 0
0.116666667 -0.0257179681 0
0.113333337 -0.0257179681 0
0.109999999 -0.0257179681 0
0.106666669 -0.0257179681 0
0.103333332 -0.0257179681 0
0.100000001 -0.0257179681 0
0.0966666639 -0.0257179681 0
0.0933333337 -0.0257179681 0
0.0900000036 -0.0257179681 0
0.086666666 -0.0257179681 0
0.0833333358 -0.0257179681 0
0.0799999982 -0.0257179681 0
0.0766666681 -0.0257179681 0
0.0733333305 -0.0257179681 0
0.0700000003 -0.0257179681 0
0.0666666701 -0.0257179681 0
0.0633333325 -0.0257179681 0
0.0599999987 -0.0257179681 0
0.0566666685 -0.0257179681 0
0.0533333346 -0.0257179681 0
0.0500000007 -0.0257179681 0
0.0466666669 -0.0257179681 0
0.043333333 -0.0257179681 0
0.0399999991 -0.0257179681 0
0.138333336 -0.0286047198 0
0.135000005 -0.0286047198 0
0.13166666 -0.0286047198 0
0.12833333 -0.0286047198 0
0.125 -0.0286047198 0
0.12166667 -0.0286047198 0
0.118333332 -0.0286047198 0
0.115000002 -0.0286047198 0
0.111666664 -0.0286047198 0
0.108333334 -0.0286047198 0
0.104999997 -0.0286047198 0
0.101666667 -0.0286047198 0
0.0983333364 -0.0286047198 0
0.0949999988 -0.0286047198 0
0.0916666687 -0.0286047198 0
0.088333331 -0.0286047198 0
0.0850000009 -0.0286047198 0
0.0816666633 -0.0286047198 0
0.0783333331 -0.0286047198 0
0.075000003 -0.0286047198 0
0.0716666654 -0.0286047198 0
0.0683333352 -0.0286047198 0
0.0649999976 -0.0286047198 0
0.0616666675 -0.0286047198 0
0.0583333336 -0.0286047198 0
0.0549999997 -0.0286047198 0
0.0516666658 -0.0286047198 0
0.0483333319 -0.0286047198 0
0.0450000018 -0.0286047198 0
0.0416666679 -0.0286047198 0
0.038333334 -0.0286047198 0
0.13666667 -0.0314914696 0
0.13333334 -0.0314914696 0
0.129999995 -0.0314914696 0
0.126666665 -0.0314914696 0
0.123333335 -0.0314914696 0
0.119999997 -0.0314914696 0
0.116666667 -0.0314914696 0
0.113333337 -0.0314914696 0
0.109999999 -0.0314914696 0
0.106666669 -0.0314914696 0
0.103333332 -0.0314914696 0
0.100000001 -0.0314914696 0
0.0966666639 -0.0314914696 0
0.0933333337 -0.0314914696 0
0.0900000036 -0.0314914696 0
0.086666666 -0.0314914696 0
0.0833333358 -0.0314914696 0
0.0799999982 -0.0314914696 0
0.0766666681 -0.0314914696 0
0.0733333305 -0.0314914696 0
0.0700000003 -0.0314914696 0
0.0666666701 -0.0314914696 0
0.0633333325 -0.0314914696 0
0.0599999987 -0.0314914696 0
0.0566666685 -0.0314914696 0
0.0533333346 -0.0314914696 0
0.0500000007 -0.0314914696 0
0.0466666669 -0.0314914696 0
0.043333333 -0.0314914696 0
0.0399999991 -0.0314914696 0
0.0366666652 -0.0314914696 0
0.135000005 -0.0343782231 0
0.13166666 -0.0343782231 0
0.12833333 -0.0343782231 0
0.125 -0.0343782231 0
0.12166667 -0.0343782231 0
0.118333332 -0.0343782231 0
0.115000002 -0.0343782231 0
0.111666664 -0.0343782231 0
0.108333334 -0.0343782231 0
0.104999997 -0.0343782231 0
0.101666667 -0.0343782231 0
0.0983333364 -0.0343782231 0
0.0949999988 -0.0343782231 0
0.0916666687 -0.0343782231 0
0.088333331 -0.0343782231 0
0.0850000009 -0.0343782231 0
0.0816666633 -0.0343782231 0
0.0783333331 -0.0343782231 0
0.075000003 -0.0343782231 0
0.0716666654 -0.0343782231 0
0.0683333352 -0.0343782231 0
0.0649999976 -0.0343782231 0
0.0616666675 -0.0343782231 0
0.0583333336 -0.0343782231 0
0.0549999997 -0.0343782231 0
0.0516666658 -0.0343782231 0
0.0483333319 -0.0343782231 0
0.0450000018 -0.0343782231 0
0.0416666679 -0.0343782231 0
0.038333334 -0.0343782231 0
0.0350000001 -0.0343782231 0
0.13333334 -0.0372649729 0
0.129999995 -0.0372649729 0
0.126666665 -0.0372649729 0
0.123333335 -0.0372649729 0
0.119999997 -0.0372649729 0
0.116666667 -0.0372649729 0
0.113333337 -0.0372649729 0
0.109999999 -0.0372649729 0
0.106666669 -0.0372649729 0
0.103333332 -0.0372649729 0
0.100000001 -0.0372649729 0
0.0966666639 -0.0372649729 0
0.0933333337 -0.0372649729 0
0.0900000036 -0.0372649729 0
0.086666666 -0.0372649729 0
0.0833333358 -0.0372649729 0
0.0799999982 -0.0372649729 0
0.0766666681 -0.0372649729 0
0.0733333305 -0.0372649729 0
0.0700000003 -0.0372649729 0
0.0666666701 -0.0372649729 0
0.0633333325 -0.0372649729 0
0.0599999987 -0.0372649729 0
0.0566666685 -0.0372649729 0
0.0533333346 -0.0372649729 0
0.0500000007 -0.0372649729 0
0.0466666669 -0.0372649729 0
0.043333333 -0.0372649729 0
0.0399999991 -0.0372649729 0
0.0366666652 -0.0372649729 0
0.0333333351 -0.0372649729 0
0.13166666 -0.0401517227 0
0.12833333 -0.0401517227 0
0.125 -0.0401517227 0
0.12166667 -0.0401517227 0
0.118333332 -0.0401517227 0
0.115000002 -0.0401517227 0
0.111666664 -0.0401517227 0
[...]
POINT_DATA 961
SCALARS Temp float 1
LOOKUP_TABLE default
437.1497834560534
389.5697285399746
348.80246368266717
315.62206106004584
289.63567771450334
270.0385313383079
255.8038958378096
245.8417099377139
239.12035524517833
234.7454839407838
231.9959330606404
230.3256581762314
229.343881669926
228.78495751528283
228.47672659535698
228.3127309021607
228.23061883412657
228.1972088405535
228.19985482748618
228.2436750917637
228.35470701134446
228.58951052702048
229.05191156092974
229.9168596903903
231.45930277550846
234.08289957298487
238.33968074324102
244.9299242135988
254.67453722662776
268.4657298059557
287.4319223028635
389.569753030916
343.2487078340111
304.9121197342095
274.2665553337466
250.66658990107516
233.1571542690142
220.63950156491808
212.01297752462233
206.27889356432976
202.59978362778546
200.31908338901755
198.95170054636523
198.15800432842988
197.71165285550165
197.46871536410393
197.3420015612259
197.28206127622587
197.26487553716325
197.28576971193593
197.35933662187983
197.52565594281623
197.86349491641863
198.51095919265754
199.69269836833539
201.75014199861712
205.16761340777023
210.58380989287926
218.77778983524786
230.62265813264722
247.01643191875206
268.4657564456932
348.80238524825825
304.91208267269116
269.0575376132213
240.7736948206771
219.24807596689374
203.44775805534786
192.26101961923803
184.61867156661583
179.57812512114052
176.36615034321233
174.38694173923656
173.20648430421096
172.52441399479022
172.14252579751522
171.93596976197423
171.83008784809778
171.78387043341883
171.77990618835238
171.82051216186792
171.93007638588367
172.16408309976447
172.62547195962586
173.48831334164075
175.02684253540144
177.64478945591145
181.89612450364442
188.48568867273568
198.2383545851016
212.02760612324687
230.62265044771357
254.67455891137166
315.6219532779962
274.2664936479919
240.77368308534076
214.5569689144532
194.73423020485657
180.2603850476755
170.0545620423158
163.10334400036086
158.52805982583888
155.61610682623888
153.82265621072364
152.75291122775246
152.1345522812983
151.78832081673602
151.60163982042508
151.50778740434203
151.47140561504594
151.48030681905908
151.5434935589984
151.6956111605384
152.00839514779037
152.60953312190668
153.70822671095192
155.62439804954133
158.8150659377008
163.8878080700963
171.58952291502118
182.75940344896406
198.23836969307385
218.77779982058854
244.92989562868615
289.6355598677707
250.66652221649898
219.24804126670884
194.73429767629884
176.23602342365228
162.74093648998607
153.2243032931009
146.73669592901567
142.46009960153202
139.73283193231725
138.04924521541
137.04254516475967
136.45925506665722
136.13221441654434
135.95644879748517
135.87025626162406
135.84231457822654
135.86497461210294
135.9538500152005
136.15404380917232
136.5535119384634
137.30360839438669
138.64535240517733
140.93736148894885
144.67792099615562
150.51073416345992
159.20320289837943
171.5895145005563
188.4856800724003
210.58379759101763
238.3396602797927
270.0384100295992
233.1571583404627
203.44779480786158
180.26034972529604
162.74092428857003
149.9342768844371
140.880294573003
134.6903979495572
130.59763663526513
127.97952607504244
126.35842920230843
125.38632666622797
124.8217395756456
124.50490093112016
124.33545420008745
124.25497416119131
124.23528133062985
124.27290569277734
124.38993335470882
124.64162317713364
125.13111733828289
126.0308345823887
127.60843039469601
130.2524927996084
134.48993627198874
140.9850751097116
150.51072998621584
163.88780715571326
181.89612597579733
205.1675826361182
234.08288969404003
255.8038538477718
220.63950434370398
192.26106409454164
170.05452804614515
153.22429226381863
140.8802928089688
132.1236505590887
126.11713059592455
122.1330628218195
119.57702550651287
117.99017694421883
117.03643439554762
116.48159780394424
116.17027709213305
116.00493379467243
115.9294242983499
115.91820823162737
115.97170305458764
116.11809570946824
116.42194507375315
116.9996686237451
118.0410835756914
119.83438023040911
122.78922439203815
127.45001249164278
134.48993172732767
144.6779112316883
158.8150515009395
177.64478536087702
201.75013904625686
231.4593152386192
245.84170026219374
212.01300361984033
184.61862601783636
163.10332232874794
146.73670453404662
134.69041439061633
126.11712896636305
120.21913650029818
116.2969148254295
113.77491254812435
112.20620076407995
111.26193552664546
110.71215839759222
110.40403157715251
110.2417933034959
110.17101498759726
110.16845537413779
110.23806621629569
110.41348786690594
110.76726211864566
111.426615442933
112.594667228828
114.574104804354
117.78786589888169
122.78922178204186
130.25248882204443
140.93736282500595
155.62439851623114
175.02682829292033
199.6926832639215
229.91686391354185
239.12036027206378
206.27896354386314
179.57811099831187
158.5280598487727
142.46011183779518
130.59762954277144
122.13306103162165
116.29692400333775
112.4086538209757
109.90468261889548
108.34529695187305
107.40584340507439
106.85877055024409
106.55273689673916
106.39316665609167
106.32699869358034
106.33298611468383
106.4181573611827
106.62074433459806
107.01968989070825
107.75039444172226
109.02534957734578
111.15651881368753
114.57410700361396
119.83438099078572
127.60842966821244
138.64535110239754
153.70822327984553
173.4883201291787
198.51097389073604
229.0519402440482
234.74561951362455
202.59978667026672
176.36615943312174
155.61611767533793
139.73285101364073
127.9795271522555
119.57703231301022
113.7749101115064
109.90468063902487
107.40998396466476
105.855305294739
104.91832164399216
104.37282911892483
104.06838691418699
103.91126474626483
103.84951586463919
103.86357214260524
103.96299761280348
104.18964860517086
104.6272520906519
105.41693393506785
106.77722310395012
109.02534780851921
112.59466685702475
118.04108324886361
126.03083390221042
137.30360839537838
152.60951690577275
172.62546076122368
197.8634843318293
228.58951626712204
231.99614662192798
200.31908457497192
174.3869473365283
153.82266909905107
138.0492352744806
126.35843014303478
117.99018467454374
112.20620071619854
108.34529889537896
105.8553049744252
104.30302675260339
103.36741092410351
102.82300708644837
102.51993750125798
102.36510281949582
102.30745239669528
102.32876880181894
102.44058439705859
102.68743056983077
103.15635652490779
103.99218069561326
105.41693605804852
107.75039502273125
111.42661391378479
116.99966636502664
125.13111656576513
136.55351000172078
152.00839517660825
172.16409099088742
197.52566709011202
228.35469089535903
230.32564453342945
198.95167970078361
173.20648262002098
152.75292159207916
137.04253271237263
125.38632949179305
117.03642786940148
111.2619358403031
107.40583884653202
104.91832130196542
103.36741255826264
102.43273736616418
101.88926730279259
101.5874956592124
101.43479776046962
101.38081864331548
101.40837057974159
101.53042055200692
101.79334286307976
102.28632545518357
103.15635820002188
104.62725325351904
107.01968916729928
110.76726571464103
116.42194998016005
124.64163124849031
136.15403929168826
151.69560577649622
171.9300778757753
197.35933476306985
228.24366567327513
229.34382436138316
198.15797937701748
172.52441856806297
152.13452983643165
136.45925245500018
124.82175058615991
116.4815950847761
110.71216214518675
106.85876823536765
104.37283033432033
102.82300603515856
101.88926666086167
101.34680994456427
101.04637835992912
100.89569529031002
100.8449244217643
100.87762016521326
101.00773268438935
101.28282045762006
101.79334146320207
102.68743015398951
104.18965027584468
106.62074140860716
110.41348696828956
116.1180941615589
124.38993111005497
135.95384839825138
151.54349148146875
171.8205168686112
197.28574167412697
228.1998683660633
228.7848803744535
197.71161920220976
172.14253198941134
151.788299640103
136.13221430934306
124.50488972454319
116.17027640726516
110.40402699673056
106.55273522161532
104.06838883590645
102.5199362584209
101.58749563977946
101.04637820117655
100.74748631603173
100.59878750648927
100.55081860879602
100.58764541619195
100.72385832633117
101.0077324741174
101.53042094526637
102.44058428171105
103.96299871907327
106.41815715897465
110.23806916240149
115.97170786012796
124.27290189235912
135.86496956031888
151.48030028739205
171.7799052897836
197.26487880740976
228.1972099632766
228.47666601434662
197.468704630534
171.93594301541324
151.60163480642709
135.95646252241824
124.33545044025904
116.00493985470418
110.24179180862302
106.39316621370764
103.91126408286134
102.36510272472393
101.43479814214103
100.89569512266868
100.59878769406214
100.4522188081026
100.40679475337461
100.44693595115127
100.5876452660505
100.87761979851697
101.40837013449374
102.32876885953672
103.86357144633095
106.33298331555844
110.16845437427844
115.9182063188819
124.23527979274694
135.842312768773
151.47140351608007
171.7838517314729
197.28205259635328
228.23058855846512
228.31268517798983
197.34201274400547
171.83007178786656
151.50778830178808
135.87024127846115
124.2549724204315
115.92941686205926
110.17101481953182
106.32699985651979
103.84951531952301
102.30745257854944
101.38081761044555
100.8449244861901
100.55081834593652
100.4067947537455
100.36388667318967
100.40679483662886
100.55081846333492
100.84492486650402
101.38081808976519
102.30745214667589
103.84951699105153
106.32699864607166
110.17101814378309
115.9294212158802
124.25497029937732
135.87025230814996
151.50778114483924
171.83008911913836
197.34198365045972
228.31272063645633
228.23065067121317
197.2820467963403
171.78387728949005
151.4714232243266
135.84230884638865
124.23528912274425
115.91820604838178
110.16845789992858
106.33298311360738
103.86357323455779
102.32877022162235
101.40837012558062
100.87762072262716
100.58764536584623
100.44693602852496
100.40679489062545
100.45221892540609
100.59878737411528
100.8956953115476
101.43479749298379
102.36510178063956
103.91126430648976
106.39316393636118
110.24179191272515
116.00493305559758
124.33545327196228
135.95644833591345
151.6016191257584
171.93596453499174
197.4686970307277
228.47672325703897
228.19728962828404
197.26486175772186
171.77991395294907
151.48028422353033
135.86497144903194
124.2728950307591
115.97170269562912
110.23807085167195
106.41815452481349
103.96299941844138
102.44058349470181
101.53042031097739
101.00773225407374
100.72385815948495
100.58764554361707
100.55081864929349
100.59878755640285
100.7474865265939
101.04637846598035
101.58749535973678
102.51993724567289
104.06838796721436
106.55273727525893
110.4040297330889
116.17027481547032
124.50489800048824
136.1322105492207
151.78831866132177
172.14251848167478
197.71165068071537
228.78498263710384
228.19981345130157
197.28574801759729
171.82052267361553
151.54347245469037
135.95385127503252
124.3899239664125
116.11809477694752
110.4134835904074
106.62074221216332
104.18965115588232
102.68742927902692
101.79334246854224
101.28282023140613
101.0077325139295
100.87762012922431
100.84492440103733
100.8956951556183
101.04637855232086
101.34680973331345
101.88926646078166
102.82300679123372
104.37282995172653
106.85877004125292
110.71216023928805
116.4816013299311
124.82174641498133
136.45924950613653
152.13455694425465
172.5244174907258
198.15801444011814
229.3439024283379
228.2436289251559
197.35933442411203
171.93005214496503
151.69560650252618
136.15402934642978
124.64162399101971
116.42195256198406
110.76726193706553
107.01969035708969
104.6272520701213
103.15635720902196
102.28632507463526
101.79334254368953
101.53042082840851
101.40837061304244
101.38081864642525
101.43479786176059
101.58749578282271
101.88926711172768
102.43273790503996
103.36741193332487
104.91832249761924
107.40584040899503
111.26193447813073
117.03643312642883
125.38632549632248
137.04254376197517
152.75290059444453
173.20648159297622
198.95169887573985
230.32566817584726
228.35467868652552
197.52566552081015
172.16406494607554
152.0083987139776
136.55350071721037
125.13111797478541
116.99966180706994
111.4266153553415
107.75039649559349
105.41693472689182
103.99218234153004
103.15635619128244
102.68743027573375
102.4405842779765
102.32876867408847
102.30745238536372
102.36510297167149
102.51993734940537
102.82300697196698
103.36741130389653
104.30302638297341
105.85530593066005
108.34529731095826
112.20620440173045
117.99018040341521
126.35842518625327
138.0492488290709
153.8226526520634
174.386942588739
200.31908504897316
231.99593548571843
228.5895022033924
197.86345377049074
172.62546329849673
152.60950528984122
137.30359984543372
126.0308382497255
118.04107832187746
112.59466882543681
109.02534613450719
106.77722162938481
105.41693329635316
104.62725149805243
104.18964906102565
103.96299768959624
103.8635721258361
103.84951591041863
103.9112647841179
104.06838677582368
104.3728293583197
104.91832114420365
105.85530588654436
107.40998461279118
109.9046792905343
113.77491281461937
119.57702769122223
127.97953168455253
139.73282777969388
155.61610453103958
176.36615754054455
202.59978931635746
234.7454665488021
229.0519788072039
198.51096649207417
173.48834366062468
153.70822678789793
138.6453651399676
127.60843265175956
119.83439041761105
114.57411522273851
111.15652203638915
109.02535673709436
107.75039833324706
107.01969357965872
106.62074815189433
106.41816108287118
106.33299020832894
106.32700285588564
106.39317043485242
106.55274068658777
106.85877436270376
107.4058464535315
108.34530044906535
109.90468393762485
112.40865770892512
116.29692107489844
122.13305576359016
130.5976349125435
142.46009205942954
158.52804953428264
179.57811792846118
206.2788529428867
239.1203164108293
229.9168582924239
199.69271120633053
175.02683541565642
155.6244043679955
140.9373814327898
130.252492623145
122.78923331553409
117.78787130694691
114.57410974851193
112.59467279240597
111.4266207279323
110.76726895610827
110.41349418723742
110.23807233651708
110.1684615182327
110.17102104364234
110.24179920381465
110.40403749371067
110.71216364604469
111.26194120526725
112.20620593036568
113.77491607089577
116.29692030255069
120.21913595288531
126.11713371262276
134.69039782157046
146.73669715812048
163.10333295764633
184.61866794010984
212.01297194325156
245.8417300657546
231.45929611124305
201.7501685145973
177.6447873949547
158.8150649390163
144.67791066633828
134.48994070803226
127.45002089890953
122.78922656146956
119.83438827095826
118.04108734639567
116.99967219133016
116.42194896034023
116.11809958685274
115.97170779138904
115.91821308821328
115.9294286168281
116.00493817578096
116.17028117850602
116.4816011976835
117.03643806318858
117.99017946506142
119.57703006430805
122.13306342708188
126.11713092064237
132.12366005042534
140.88028719833088
153.22430143448847
170.05456539516342
192.2610231121493
220.63951810252448
255.80394368632656
234.08292887455215
205.16758084666807
181.89611651786686
163.8878143010106
150.51072137893334
140.985078539111
134.48993325134128
130.2524898959163
127.60842850852167
126.0308324823541
125.13111784436875
124.64162350294652
124.38993366453354
124.2729061189289
124.2352815734634
124.25497424254802
124.33545396821532
124.50489998928211
124.82173878743997
125.38632538834884
126.35842764071826
127.97952685723892
130.59763473338938
134.6904016603358
140.8802856821712
149.9342797608861
162.74094881623728
180.26040786522145
203.44779037032194
233.15719099535633
270.03851227804813
238.33968853390797
210.58377237448832
188.48567025525756
171.58949206826153
159.2031956253602
150.51072831880626
144.67790797482465
140.93735599257332
138.64534150814922
137.30359738657384
136.55350189571723
136.1540343745704
135.95384224440173
135.86496695908178
135.84230601797012
135.87024768019623
135.95643929646448
136.13220366782596
136.45924412150626
137.04253392999962
138.049236393249
139.73282197701138
142.46009162509588
146.73669619948785
153.224294721462
162.7409428899695
176.2360551905551
194.73426172502147
219.24803971723023
250.66655701572486
289.6356227396933
244.92989234685166
218.77780119446115
198.23839752739593
182.75941714124866
171.58955242102695
163.88782943986007
158.8150858247171
155.62441750683487
153.70824507481984
152.6095553428138
152.00841869607535
151.69563570467758
151.54351799740036
151.48033044318
151.47142908084552
151.50781005508722
151.60166064266676
151.78834029774873
152.134570519458
152.752930394167
153.8226788325175
155.61612889892692
158.52808599027324
163.10336028720963
170.05458680075515
180.26042548370205
194.7342930942449
214.5569662412026
240.77369076171544
274.2665241030138
315.6220295149837
254.67453236717097
230.62266359689298
212.02761259735422
198.23838357997087
188.48571953716169
181.89614382358283
177.6448144279147
175.02685904676636
173.48832917885716
172.62549155257022
172.16410714945803
171.93010246140372
171.82053614054348
171.7799291270141
171.7838943843931
171.83010941625255
171.93598683106467
172.1425401440707
172.52442850122375
173.20650397315276
174.38696422138463
176.36617551277007
179.5781546324322
184.61869233469525
192.26105108412924
203.44780615537448
219.24805721124034
240.77369107636696
269.05754628225066
304.9121154897807
348.8024898681664
268.46572632598253
247.01643167079044
230.62266054579226
218.77781539707902
210.5838195674677
205.16761776320465
201.75014185810343
199.69269261576034
198.51095875771443
197.86350948254002
197.52567567078492
197.35934684593474
197.28577680961473
197.26488830236877
197.28207442750625
197.34200650620843
197.46871301486826
197.71164518684714
198.15800309937725
198.95171239416155
200.3190998245815
202.5997996083162
206.27889865126315
212.01299196830698
220.63953009411122
233.15720009305738
250.66656956865063
274.2665333607319
304.91210974628757
343.2487251696085
389.56974516745777
287.4318743392222
268.465717270872
254.67458148508254
244.929939470261
238.3396781910517
234.08289989902698
231.4592892682206
229.91681564342775
229.05190924027278
228.5895484730146
228.35471358996375
228.2436596439711
228.1998567078423
228.19722927699803
228.23061986543908
228.3127220335788
228.47669437426765
228.78492698488859
229.3438786373153
230.32567936816264
231.99594767081143
234.74548386813314
239.12035607104866
245.84172198984717
255.803928148855
270.0384972984088
289.63564265648574
315.6220340545556
348.8024531319585
389.56971491619294
437.1494456798476
