# vtk DataFile Version 2.0
Unstructured Grid Example
ASCII
DATASET UNSTRUCTURED_GRID

POINTS 961 float
0.150000006 -0.00839745998 0
0.146666661 -0.00839745998 0
0.143333331 -0.00839745998 0
0.140000001 -0.00839745998 0
0.13666667 -0.00839745998 0
0.13333334 -0.00839745998 0
0.129999995 -0.00839745998 0
0.126666665 -0.00839745998 0
0.123333335 -0.00839745998 0
0.119999997 -0.00839745998 0
0.116666667 -0.00839745998 0
0.113333337 -0.00839745998 0
0.109999999 -0.00839745998 0
0.106666669 -0.00839745998 0
0.103333332 -0.00839745998 0
0.100000001 -0.00839745998 0
0.0966666639 -0.00839745998 0
0.0933333337 -0.00839745998 0
0.0900000036 -0.00839745998 0
0.086666666 -0.00839745998 0
0.0833333358 -0.00839745998 0
0.0799999982 -0.00839745998 0
0.0766666681 -0.00839745998 0
0.0733333305 -0.00839745998 0
0.0700000003 -0.00839745998 0
0.0666666701 -0.00839745998 0
0.0633333325 -0.00839745998 0
0.0599999987 -0.00839745998 0
0.0566666685 -0.00839745998 0
0.0533333346 -0.00839745998 0
0.0500000007 -0.00839745998 0
0.148333326 -0.0112842107 0
0.144999996 -0.0112842107 0
0.141666666 -0.0112842107 0
0.138333336 -0.0112842107 0
0.135000005 -0.0112842107 0
0.13166666 -0.0112842107 0
0.12833333 -0.0112842107 0
0.125 -0.0112842107 0
0.12166667 -0.0112842107 0
0.118333332 -0.0112842107 0
0.115000002 -0.0112842107 0
0.111666664 -0.0112842107 0
0.108333334 -0.0112842107 0
0.104999997 -0.0112842107 0
0.101666667 -0.0112842107 0
0.0983333364 -0.0112842107 0
0.0949999988 -0.0112842107 0
0.0916666687 -0.0112842107 0
0.088333331 -0.0112842107 0
0.0850000009 -0.0112842107 0
0.0816666633 -0.0112842107 0
0.0783333331 -0.0112842107 0
0.075000003 -0.0112842107 0
0.0716666654 -0.0112842107 0
0.0683333352 -0.0112842107 0
0.0649999976 -0.0112842107 0
0.0616666675 -0.0112842107 0
0.0583333336 -0.0112842107 0
0.0549999997 -0.0112842107 0
0.0516666658 -0.0112842107 0
0.0483333319 -0.0112842107 0
0.146666661 -0.0141709624 0
0.143333331 -0.0141709624 0
0.140000001 -0.0141709624 0
0.13666667 -0.0141709624 0
0.13333334 -0.0141709624 0
0.129999995 -0.0141709624 0
0.126666665 -0.0141709624 0
0.123333335 -0.0141709624 0
0.119999997 -0.0141709624 0
0.116666667 -0.0141709624 0
0.113333337 -0.0141709624 0
0.109999999 -0.0141709624 0
0.106666669 -0.0141709624 0
0.103333332 -0.0141709624 0
0.100000001 -0.0141709624 0
0.0966666639 -0.0141709624 0
0.0933333337 -0.0141709624 0
0.0900000036 -0.0141709624 0
0.086666666 -0.0141709624 0
0.0833333358 -0.0141709624 0
0.0799999982 -0.0141709624 0
0.0766666681 -0.0141709624 0
0.0733333305 -0.0141709624 0
0.0700000003 -0.0141709624 0
0.0666666701 -0.0141709624 0
0.0633333325 -0.0141709624 0
0.0599999987 -0.0141709624 0
0.0566666685 -0.0141709624 0
0.0533333346 -0.0141709624 0
0.0500000007 -0.0141709624 0
0.0466666669 -0.0141709624 0
0.144999996 -0.0170577131 0
0.141666666 -0.0170577131 0
0.138333336 -0.0170577131 0
0.135000005 -0.0170577131 0
0.13166666 -0.0170577131 0
0.12833333 -0.0170577131 0
0.125 -0.0170577131 0
0.12166667 -0.0170577131 0
0.118333332 -0.0170577131 0
0.115000002 -0.0170577131 0
0.111666664 -0.0170577131 0
0.108333334 -0.0170577131 0
0.104999997 -0.0170577131 0
0.101666667 -0.0170577131 0
0.0983333364 -0.0170577131 0
0.0949999988 -0.0170577131 0
0.0916666687 -0.0170577131 0
0.088333331 -0.0170577131 0
0.0850000009 -0.0170577131 0
0.0816666633 -0.0170577131 0
0.0783333331 -0.0170577131 0
0.075000003 -0.0170577131 0
0.0716666654 -0.0170577131 0
0.0683333352 -0.0170577131 0
0.0649999976 -0.0170577131 0
0.0616666675 -0.0170577131 0
0.0583333336 -0.0170577131 0
0.0549999997 -0.0170577131 0
0.0516666658 -0.0170577131 0
0.0483333319 -0.0170577131 0
0.0450000018 -0.0170577131 0
0.143333331 -0.0199444648 0
0.140000001 -0.0199444648 0
0.13666667 -0.0199444648 0
0.13333334 -0.0199444648 0
0.129999995 -0.0199444648 0
0.126666665 -0.0199444648 0
0.123333335 -0.0199444648 0
0.119999997 -0.0199444648 0
0.116666667 -0.0199444648 0
0.113333337 -0.0199444648 0
0.109999999 -0.0199444648 0
0.106666669 -0.0199444648 0
0.103333332 -0.0199444648 0
0.100000001 -0.0199444648 0
0.0966666639 -0.0199444648 0
0.0933333337 -0.0199444648 0
0.0900000036 -0.0199444648 0
0.086666666 -0.0199444648 0
0.0833333358 -0.0199444648 0
0.0799999982 -0.0199444648 0
0.0766666681 -0.0199444648 0
0.0733333305 -0.0199444648 0
0.0700000003 -0.0199444648 0
0.0666666701 -0.0199444648 0
0.0633333325 -0.0199444648 0
0.0599999987 -0.0199444648 0
0.0566666685 -0.0199444648 0
0.0533333346 -0.0199444648 0
0.0500000007 -0.0199444648 0
0.0466666669 -0.0199444648 0
0.043333333 -0.0199444648 0
0.141666666 -0.0228312165 0
0.138333336 -0.0228312165 0
0.135000005 -0.0228312165 0
0.13166666 -0.0228312165 0
0.12833333 -0.0228312165 0
0.125 -0.0228312165 0
0.12166667 -0.0228312165 0
0.118333332 -0.0228312165 0
0.115000002 -0.0228312165 0
0.111666664 -0.0228312165 0
0.108333334 -0.0228312165 0
0.104999997 -0.0228312165 0
0.101666667 -0.0228312165 0
0.0983333364 -0.0228312165 0
0.0949999988 -0.0228312165 0
0.0916666687 -0.0228312165 0
0.088333331 -0.0228312165 0
0.0850000009 -0.0228312165 0
0.0816666633 -0.0228312165 0
0.0783333331 -0.0228312165 0
0.075000003 -0.0228312165 0
0.0716666654 -0.0228312165 0
0.0683333352 -0.0228312165 0
0.0649999976 -0.0228312165 0
0.0616666675 -0.0228312165 0
0.0583333336 -0.0228312165 0
0.0549999997 -0.0228312165 0
0.0516666658 -0.0228312165 0
0.0483333319 -0.0228312165 0
0.0450000018 -0.0228312165 0
0.0416666679 -0.0228312165 0
0.140000001 -0.0257179681 0
0.13666667 -0.0257179681 0
0.13333334 -0.0257179681 0
0.129999995 -0.0257179681 0
0.126666665 -0.0257179681 0
0.123333335 -0.0257179681 0
0.119999997 -0.0257179681 0
0.116666667 -0.0257179681 0
0.113333337 -0.0257179681 0
0.109999999 -0.0257179681 0
0.106666669 -0.0257179681 0
0.103333332 -0.0257179681 0
0.100000001 -0.0257179681 0
0.0966666639 -0.0257179681 0
0.0933333337 -0.0257179681 0
0.0900000036 -0.0257179681 0
0.086666666 -0.0257179681 0
0.0833333358 -0.0257179681 0
0.0799999982 -0.0257179681 0
0.0766666681 -0.0257179681 0
0.0733333305 -0.0257179681 0
0.0700000003 -0.0257179681 0
0.0666666701 -0.0257179681 0
0.0633333325 -0.0257179681 0
0.0599999987 -0.0257179681 0
0.0566666685 -0.0257179681 0
0.0533333346 -0.0257179681 0
0.0500000007 -0.0257179681 0
0.0466666669 -0.0257179681 0
0.043333333 -0.0257179681 0
0.0399999991 -0.0257179681 0
0.138333336 -0.0286047198 0
0.135000005 -0.0286047198 0
0.13166666 -0.0286047198 0
0.12833333 -0.0286047198 0
0.125 -0.0286047198 0
0.12166667 -0.0286047198 0
0.118333332 -0.0286047198 0
0.115000002 -0.0286047198 0
0.111666664 -0.0286047198 0
0.108333334 -0.0286047198 0
0.104999997 -0.0286047198 0
0.101666667 -0.0286047198 0
0.0983333364 -0.0286047198 0
0.0949999988 -0.0286047198 0
0.0916666687 -0.0286047198 0
0.088333331 -0.0286047198 0
0.0850000009 -0.0286047198 0
0.0816666633 -0.0286047198 0
0.0783333331 -0.0286047198 0
0.075000003 -0.0286047198 0
0.0716666654 -0.0286047198 0
0.0683333352 -0.0286047198 0
0.0649999976 -0.0286047198 0
0.0616666675 -0.0286047198 0
0.0583333336 -0.0286047198 0
0.0549999997 -0.0286047198 0
0.0516666658 -0.0286047198 0
0.0483333319 -0.0286047198 0
0.0450000018 -0.0286047198 0
0.0416666679 -0.0286047198 0
0.038333334 -0.0286047198 0
0.13666667 -0.0314914696 0
0.13333334 -0.0314914696 0
0.129999995 -0.0314914696 0
0.126666665 -0.0314914696 0
0.123333335 -0.0314914696 0
0.119999997 -0.0314914696 0
0.116666667 -0.0314914696 0
0.113333337 -0.0314914696 0
0.109999999 -0.0314914696 0
0.106666669 -0.0314914696 0
0.103333332 -0.0314914696 0
0.100000001 -0.0314914696 0
0.0966666639 -0.0314914696 0
0.0933333337 -0.0314914696 0
0.0900000036 -0.0314914696 0
0.086666666 -0.0314914696 0
0.0833333358 -0.0314914696 0
0.0799999982 -0.0314914696 0
0.0766666681 -0.0314914696 0
0.0733333305 -0.0314914696 0
0.0700000003 -0.0314914696 0
0.0666666701 -0.0314914696 0
0.0633333325 -0.0314914696 0
0.0599999987 -0.0314914696 0
0.0566666685 -0.0314914696 0
0.0533333346 -0.0314914696 0
0.0500000007 -0.0314914696 0
0.0466666669 -0.0314914696 0
0.043333333 -0.0314914696 0
0.0399999991 -0.0314914696 0
0.0366666652 -0.0314914696 0
0.135000005 -0.0343782231 0
0.13166666 -0.0343782231 0
0.12833333 -0.0343782231 0
0.125 -0.0343782231 0
0.12166667 -0.0343782231 0
0.118333332 -0.0343782231 0
0.115000002 -0.0343782231 0
0.111666664 -0.0343782231 0
0.108333334 -0.0343782231 0
0.104999997 -0.0343782231 0
0.101666667 -0.0343782231 0
0.0983333364 -0.0343782231 0
0.0949999988 -0.0343782231 0
0.0916666687 -0.0343782231 0
0.088333331 -0.0343782231 0
0.0850000009 -0.0343782231 0
0.0816666633 -0.0343782231 0
0.0783333331 -0.0343782231 0
0.075000003 -0.0343782231 0
0.0716666654 -0.0343782231 0
0.0683333352 -0.0343782231 0
0.0649999976 -0.0343782231 0
0.0616666675 -0.0343782231 0
0.0583333336 -0.0343782231 0
0.0549999997 -0.0343782231 0
0.0516666658 -0.0343782231 0
0.0483333319 -0.0343782231 0
0.0450000018 -0.0343782231 0
0.0416666679 -0.0343782231 0
0.038333334 -0.0343782231 0
0.0350000001 -0.0343782231 0
0.13333334 -0.0372649729 0
0.129999995 -0.0372649729 0
0.126666665 -0.0372649729 0
0.123333335 -0.0372649729 0
0.119999997 -0.0372649729 0
0.116666667 -0.0372649729 0
0.113333337 -0.0372649729 0
0.109999999 -0.0372649729 0
0.106666669 -0.0372649729 0
0.103333332 -0.0372649729 0
0.100000001 -0.0372649729 0
0.0966666639 -0.0372649729 0
0.0933333337 -0.0372649729 0
0.0900000036 -0.0372649729 0
0.086666666 -0.0372649729 0
0.0833333358 -0.0372649729 0
0.0799999982 -0.0372649729 0
0.0766666681 -0.0372649729 0
0.0733333305 -0.0372649729 0
0.0700000003 -0.0372649729 0
0.0666666701 -0.0372649729 0
0.0633333325 -0.0372649729 0
0.0599999987 -0.0372649729 0
0.0566666685 -0.0372649729 0
0.0533333346 -0.0372649729 0
0.0500000007 -0.0372649729 0
0.0466666669 -0.0372649729 0
0.043333333 -0.0372649729 0
0.0399999991 -0.0372649729 0
0.0366666652 -0.0372649729 0
0.0333333351 -0.0372649729 0
0.13166666 -0.0401517227 0
0.12833333 -0.0401517227 0
0.125 -0.0401517227 0
0.12166667 -0.0401517227 0
0.118333332 -0.0401517227 0
0.115000002 -0.0401517227 0
0.111666664 -0.0401517227 0
[...]
POINT_DATA 961
SCALARS Temp float 1
LOOKUP_TABLE default
207.23331934363836
166.6367791615092
148.49693439064407
142.40796963945905
140.59967924393516
140.09436933611053
139.95819474659433
139.92237312998813
139.9131202307186
139.91076218487748
139.9101650656381
139.91001986119372
139.90998302180498
139.90997354532857
139.90997373766152
139.90996979407984
139.90997004324166
139.90996783089275
139.90997091448796
139.90997071690506
139.90997101404673
139.90997523463935
139.9099837554238
139.9100616530715
139.91055756719106
139.9137308263784
139.93359778449798
140.05525472228723
140.77299969529912
144.71237698926205
161.39392130436931
166.63681028079333
132.48608692280297
119.93455023433681
115.97212602319102
114.82416304199245
114.50716690126966
114.42232486817953
114.40011780017421
114.3944003783157
114.39294720616775
114.39258311562926
114.39249045848476
114.39246741970722
114.39246214507467
114.39245814705615
114.39246013881097
114.39246052719135
114.39246191071256
114.39246052147914
114.3924604303463
114.39246141244881
114.39246374910876
114.39249895324355
114.39271039968358
114.39404496776578
114.40232593734015
114.45251431785476
114.74466485287292
116.32885236270877
123.43565743681496
144.71239427628115
148.49690008579097
119.9345454841076
109.23524662652706
105.85121370020416
104.8636104504368
104.58913265261212
104.5152915044307
104.49588503327733
104.49087176999278
104.48959388899634
104.48927314412902
104.48919257194086
104.48917253759878
104.48916751477822
104.48916698252937
104.48916601430092
104.48916536431867
104.48916634150922
104.48916623407659
104.48916647356377
104.4891681766762
104.48918169822853
104.4892617092336
104.48976191044122
104.49281490261549
104.51087712387498
104.61308932915473
105.15061082915389
107.58568155330872
116.32884617320276
140.77301177417564
142.40793380029405
115.97212022266454
105.85121586592555
102.61236358290778
101.66140467261098
101.39605435070847
101.32447281726385
101.30562167440124
101.30074578896819
101.29950259575209
101.29918868503138
101.29911022493482
101.29909076417829
101.29908573784692
101.29908488414604
101.29908455562865
101.29908481860593
101.2990845681742
101.29908463594563
101.29908528494848
101.29908962379032
101.2991184034718
101.2992916553356
101.30032314794964
101.30625983256634
101.33884318850912
101.50513081737228
102.25648792003533
105.15061394123093
114.74467240107393
140.0552369689094
140.59964796654853
114.82415441221907
104.86361122584256
101.66140853599215
100.71882909895918
100.45543092613387
100.38430841604122
100.36556633558494
100.3607166428497
100.35947946989819
100.35916732702171
100.35908929455165
100.35906993777878
100.35906526710924
100.35906400682775
100.35906368129025
100.35906370720006
100.35906371264687
100.35906393583382
100.35906546125759
100.3590750221708
100.35913125638479
100.35945800285093
100.36128831826304
100.37104518920822
100.4195495006684
100.63734633068643
101.50512990265193
104.61308867864803
114.45250842651063
139.93358433185108
140.09433262496424
114.50716427197996
104.58913578721001
101.39605060431916
100.45542992779791
100.19245643580443
100.12142849973695
100.10270806279644
100.09786347106275
100.09662734791434
100.09631550012415
100.09623755256729
100.09621820451927
100.09621346308117
100.09621229225087
100.09621203984244
100.09621196044118
100.09621201948532
100.09621251000436
100.09621548449287
100.0962329278227
100.09633155309325
100.09686961955796
100.0996632043348
100.11324458943872
100.1738003350573
100.41954944475795
101.33884343631034
104.51087830724057
114.40231112928016
139.91372182828138
139.95816061322265
114.42232449219253
104.51529976026151
101.32446736251153
100.38430759815506
100.1214284807403
100.05042038071217
100.03170436111087
100.02686070797151
100.02562482737946
100.02531303861001
100.0252351041071
100.02521578051352
100.02521100918274
100.02520983967449
100.02520956551437
100.02520952045006
100.02520965726261
100.02521056066162
100.02521574800247
100.02524438713557
100.02539689092477
100.02617040198683
100.0298605748822
100.04620252387345
100.11324454082077
100.37104488444702
101.3062587815045
104.49281211743909
114.39404198711387
139.9105692073902
139.92236047234383
114.40011809520105
104.49587045196532
101.30561817365424
100.3655661962977
100.10270829318695
100.03170436091453
100.01298924429854
100.00814576308198
100.00690993137756
100.00659815303725
100.00652021979441
100.00650089056273
100.00649612665848
100.0064949627037
100.0064946840485
100.00649466100388
100.00649491111062
100.00649639741391
100.00650446535074
100.00654647033855
100.00675516415758
100.00773498716866
100.01204745027307
100.0298605618396
100.09966318547217
100.36128825261297
101.30032284245854
104.48975883141088
114.39270018034415
139.91006230856934
139.9130915716506
114.39442158638991
104.49085892572755
101.30074424349313
100.36071698029879
100.09786342224189
100.02686071958283
100.00814578240691
100.00330233527313
100.002066514077
100.00175473709264
100.00167680575652
100.00165747453684
100.00165271090297
100.00165154617271
100.0016512748752
100.00165128201965
100.00165168322985
100.00165389521649
100.00166519943761
100.00172035774993
100.00197584210585
100.00309421650886
100.00773499323353
100.02617039009178
100.0968695536469
100.35945796167844
101.29929100094822
104.48926290986846
114.3925042814971
139.91000119446792
139.91081762409502
114.39292744046364
104.48959183836392
101.29950308759506
100.35948046782352
100.09662737016357
100.02562487278034
100.00690993336563
100.0020665131939
100.00083069120234
100.00051891548027
100.00044098370176
100.0004216530092
100.00041688998056
100.00041572622648
100.00041546279392
100.00041550819323
100.00041608722991
100.00041906920369
100.00043340621232
100.00049905404576
100.00078508307091
100.00197584026373
100.0067551593622
100.025396891232
100.09633155418327
100.35913131000258
101.29911666122084
104.489177843133
114.39245728855451
139.9099755968711
139.91031039170892
114.39256749571732
104.48927374233244
101.29919010081375
100.35916723015842
100.096315542897
100.02531309971327
100.00659815003422
100.0017547385511
100.00051891535091
100.00020714000016
100.00012920804906
100.00010987752222
100.00010511477207
100.0001039531177
100.00010369918633
100.00010378749772
100.0001045471386
100.00010821931032
100.00012488524281
100.00019721291444
100.00049905437525
100.00172035825692
100.00654646712798
100.02524437692941
100.09623290603659
100.35907476007557
101.2990896962892
104.48917012266752
114.39246955277196
139.90996061653004
139.91000870157853
114.39248052322478
104.4891942397143
101.29911239951416
100.35908891983937
100.09623759859772
100.0252350806224
100.00652021977797
100.00167680203006
100.00044098368298
100.00012920820367
100.00005127620575
100.00003194584316
100.00002718357621
100.00002602427496
100.00002578056734
100.00002591064174
100.00002682577106
100.00003101097603
100.0000491281969
100.00012488545337
100.00043340654648
100.00166519844726
100.0065044699938
100.02521576376857
100.09621560678262
100.3590653231688
101.29908483894808
104.48916726131951
114.39245804702735
139.90996127586203
139.90995222348712
114.39246628567234
104.48917681607115
101.29908957240941
100.35906988435521
100.09621841465353
100.02521575637908
100.00650090103566
100.00165747212507
100.00042165338401
100.00010987741699
100.0000319457962
100.00001261564876
100.00000785406574
100.00000669728286
100.0000064632283
100.00000662810814
100.00000765552743
100.00001215431905
100.00003101091158
100.00010821926568
100.0004190696584
100.00165389239484
100.00649639657527
100.02521055893595
100.09621247151935
100.35906389395494
101.29908447027485
104.48916725978147
114.39244245984175
139.9099812028717
139.9099341158365
114.39245487415675
104.48917263050708
101.29908388733055
100.35906520866848
100.09621335636051
100.02521100425638
100.00649611985831
100.00165270948968
100.00041689058938
100.0001051145748
100.00002718355425
100.00000785406188
100.00000309360739
100.0000019394705
100.00000171348077
100.0000019030217
100.00000299801685
100.00000765552089
100.00002682578635
100.00010454708304
100.00041608750031
100.00165168313428
100.00649491771057
100.0252096854613
100.09621197471196
100.35906352833113
101.29908385224154
104.48916470505917
114.39246510460485
139.90997385689553
139.90994061624295
114.39245991590349
104.48916168710235
101.29908433858596
100.35906468535349
100.09621223060034
100.02520988323496
100.00649495631603
100.00165154552064
100.00041572607242
100.00010395306302
100.00002602429967
100.00000669727868
100.00000193947234
100.00000078871953
100.00000056915559
100.0000007737985
100.00000190301942
100.0000066280985
100.0000259106144
100.0001037875244
100.00041550806796
100.00165128003422
100.00649466037216
100.02520950673076
100.09621193604805
100.35906359597932
101.2990843910797
104.48916215357697
114.392457636199
139.90994966320727
139.90993570227445
114.3924690320676
104.48916145071075
101.29908474217294
100.35906336069964
100.09621198747503
100.02520953274319
100.00649468203396
100.00165127585115
100.00041546245173
100.00010369919322
100.0000257805174
100.0000064632285
100.00000171347804
100.00000056915549
100.0000003557589
100.00000056915597
100.00000171347834
100.00000646323983
100.00002578053939
100.00010369913551
100.0004154631735
100.00165127485347
100.0064946906756
100.02520954869712
100.09621196124581
100.35906360970682
101.29908390486473
104.48916769045239
114.39245133178375
139.909965179574
139.9099868990256
114.39245160567846
104.48916757606877
101.29908684427316
100.35906341962459
100.09621208706739
100.02520949709718
100.00649466404614
100.00165127978406
100.0004155084542
100.00010378771256
100.00002591060702
100.00000662811911
100.00000190301992
100.00000077379893
100.00000056915638
100.00000078872031
100.00000193946832
100.00000669728234
100.00002602425695
100.00010395297288
100.00041572609561
100.00165154416958
100.00649495678822
100.0252098374496
100.0962122862584
100.35906406756648
101.29908303604905
104.48916504278725
114.392450399634
139.9099686218596
139.91003761141002
114.39245274899149
104.48916857054402
101.2990829483833
100.35906351893995
100.09621187809763
100.02520964644845
100.0064949212976
100.00165168049203
100.00041608780516
100.00010454701221
100.00002682574355
100.00000765551982
100.0000029980151
100.00000190302264
100.00000171348171
100.00000193947058
100.00000309361013
100.00000785406783
100.0000271835387
100.00010511473936
100.00041689021843
100.00165271122535
100.00649612283267
100.02521099850482
100.09621343831533
100.35906498869332
101.29908587941988
104.48916529194503
114.39245963392119
139.9099908887892
139.9099471991861
114.39245241253319
104.48917112204566
101.29908231241541
100.3590640043829
100.09621233820162
100.02521055340581
100.00649639146326
100.00165389293652
100.00041907013289
100.0001082191588
100.00003101097181
100.0000121543161
100.0000076555255
100.00000662810643
100.00000646322727
100.00000669728175
100.00000785406978
100.00001261564267
100.00003194579259
100.00010987748779
100.00042165330541
100.00165747348579
100.00650089485784
100.02521579506063
100.09621832018088
100.35906974484766
101.29909100321665
104.48917309795924
114.39247019066197
139.90999132917577
139.90994257471297
114.39246309639852
104.48916165459433
101.29908430597959
100.35906492729575
100.09621547710493
100.0252157851549
100.00650446177696
100.00166520001105
100.00043340632388
100.00012488529354
100.00004912819116
100.00003101096777
100.00002682577225
100.00002591065292
100.00002578056622
100.0000260242733
100.00002718358135
100.00003194583495
100.00005127624281
100.0001292080944
100.00044098410415
100.00167680284933
100.00652021852942
100.02523509918352
100.09623750667771
100.35908930470936
101.29910896848358
104.4891908281489
114.39248451747267
139.91002329167733
139.90995194724758
114.3924693691268
104.48916150141507
101.29909001652248
100.35907436177772
100.09623291935523
100.02524436468829
100.00654647034689
100.00172036019755
100.00049905396041
100.00019721315658
100.00012488527813
100.00010821929969
100.00010454710488
100.00010378747793
100.00010369918476
100.00010395315415
100.00010511476513
100.00010987753167
100.00012920806995
100.0002071399646
100.00051891571601
100.00175473688198
100.00659815888058
100.02531306429842
100.09631545057363
100.3591673620458
101.29918796985963
104.4892726327952
114.39258229229995
139.91017040969174
139.90995652188704
114.39243754027144
104.48917682933248
101.29911569921795
100.35913098740241
100.09633166231836
100.02539686311266
100.00675516535163
100.00197583944598
100.00078508250385
100.00049905398807
100.00043340613784
100.00041906915817
100.00041608739777
100.00041550818203
100.000415462776
100.00041572629989
100.00041688992552
100.00042165302492
100.000440983684
100.00051891564965
100.0008306913383
100.0020665125074
100.00690993571035
100.02562483528276
100.0966274270216
100.35947933946704
101.29950209644747
104.48959640598598
114.39295022035188
139.91074766609083
139.9100303627224
114.3924952556818
104.48926909657548
101.29929120704784
100.35945840094625
100.09686959202794
100.02617042362282
100.00773500824431
100.00309421941672
100.00197584669185
100.00172036190588
100.00166520258942
100.00165389795342
100.00165168625028
100.00165128539727
100.00165127883415
100.00165154941945
100.00165271437362
100.00165747795518
100.00167680889834
100.00175474063373
100.00206651638072
100.00330233871308
100.00814576785177
100.02686066933451
100.097863373816
100.36071622628134
101.30074414025277
104.49086787497149
114.39437688745316
139.91308930040003
139.9100598471636
114.39271375343415
104.48976076366398
101.30032302281973
100.3612889112987
100.09966315150888
100.02986061110397
100.01204746606966
100.00773500025554
100.00675517666677
100.0065464822959
100.00650447747614
100.00649641322505
100.00649492457718
100.00649467449158
100.00649469856536
100.00649497506849
100.00649614003139
100.00650090416978
100.00652023410326
100.00659816530688
100.00690994335143
100.00814577501224
100.01298923899603
100.03170437174475
100.10270797063689
100.36556600076025
101.30562037151246
104.49588195358083
114.40011425045785
139.92238468166713
139.91054831447047
114.39405951693003
104.49281194444414
101.30625962285862
100.37104479805903
100.11324462071332
100.0462025820777
100.02986060009614
100.0261704327972
100.02539692706014
100.02524440860132
100.0252157645439
100.0252105827931
100.02520968578584
100.0252095563687
100.0252095891988
100.02520986703752
100.02521103708501
100.02521580457154
100.02523513200332
100.02531306021477
100.02562484967855
100.0268607244563
100.03170438393173
100.05042042392346
100.12142842767832
100.38430816794758
101.32447244603867
104.51529099689827
114.42232923927808
139.95820855017718
139.91374783603555
114.4023091693908
104.51087473345599
101.33884436550075
100.41954899856182
100.17380040123261
100.11324462773794
100.0996632181439
100.0968696021075
100.09633152822585
100.09623290839853
100.09621552471829
100.09621252442373
100.09621203184463
100.09621197615256
100.09621202556997
100.09621229961023
100.09621347471221
100.09621821882266
100.09623753352021
100.09631548711933
100.0966273522337
100.09786345447013
100.10270808640972
100.12142846217806
100.19245655730526
100.45543128107137
101.39605582856856
104.58913610338624
114.50717050918615
140.09437986573965
139.9336098724575
114.45249351943352
104.61308669239077
101.50512824442565
100.63734599741402
100.41954932191764
100.37104489407086
100.36128797874738
100.35945776573953
100.35913082840237
100.35907456123927
100.3590651047274
100.35906366989266
100.35906349625198
100.35906330725396
100.35906337431535
100.35906372128554
100.3590649013889
100.3590695889794
100.3590888649764
100.35916693036322
100.35947908696987
100.36071643014651
100.36556607275334
100.38430799398918
100.45543096504153
100.71883073113587
101.66140565360955
104.86361026994453
114.82416120519925
140.59966856887786
140.05522993110458
114.74466841673608
105.15062127202908
102.25648956210472
101.50513368018893
101.33884614848368
101.30626217768952
101.30032507604345
101.29929342334084
101.2991203225156
101.29909244901856
101.29908790380922
101.29908704457613
101.29908680183978
101.29908690218294
101.29908702518826
101.29908728111363
101.29908803292545
101.29909258298878
101.29911220963083
101.29919105136486
101.29950485519966
101.30074825938009
101.3056239232121
101.3244751708876
101.3960579003134
101.66140805996233
102.61236243372088
105.85120930698648
115.97210523442556
142.40794243085932
140.77299289516378
116.32885620476735
107.58568531306523
105.15061827892914
104.6130974025767
104.51088311681923
104.49282037346414
104.48976830170254
104.48926609209204
104.48918651023075
104.48917476485784
104.489173561931
104.48917259213425
104.48917132780119
104.48917231947388
104.48917277240436
104.48917230040156
104.4891725115698
104.48917684185339
104.48919798704867
104.48927927222121
104.48960163762092
104.49087804470027
104.49588985161468
104.51529853554747
104.58913954035097
104.86361439956548
105.85121560840196
109.2352440949822
119.93454512233234
148.4969559207681
144.7123762873641
123.43566388832005
116.32886003004306
114.74467861806745
114.45252373079683
114.4023315198635
114.3940473338678
114.3927088267891
114.39249921359976
114.39247708011374
114.39247409922915
114.39246464247299
114.3924628396294
114.39246901294028
114.39247000458882
114.39246599814243
114.39246201238512
114.39246032133481
114.39246972145712
114.39249894291925
114.39259245753789
114.39295366548981
114.3944047410583
114.40012546226025
114.42233643709159
114.50717416490255
114.8241632035144
115.97212633964122
119.9345502727926
132.48610662428683
166.63681477116913
161.39388480828092
144.7123756597954
140.77303561527347
140.0552629329854
139.93359657142133
139.9137297406969
139.91055577485162
139.91003014667422
139.90998556158527
139.9100057502513
139.90997362031928
139.90995565436842
139.90997175647166
139.90998767673435
139.90997316071454
139.90996892174036
139.90995243146978
139.90995512807854
139.90998345059964
139.91003800427026
139.91017773454774
139.91075573846157
139.91312100240842
139.92237692272988
139.95819884173554
140.09437140494947
140.59967563695943
142.40796286036868
148.4969373216087
166.63679132431415
207.23308123458054
