# vtk DataFile Version 2.0
Unstructured Grid Example
ASCII
DATASET UNSTRUCTURED_GRID

POINTS 961 float
0.150000006 -0.00839745998 0
0.146666661 -0.00839745998 0
0.143333331 -0.00839745998 0
0.140000001 -0.00839745998 0
0.13666667 -0.00839745998 0
0.13333334 -0.00839745998 0
0.129999995 -0.00839745998 0
0.126666665 -0.00839745998 0
0.123333335 -0.00839745998 0
0.119999997 -0.00839745998 0
0.116666667 -0.00839745998 0
0.113333337 -0.00839745998 0
0.109999999 -0.00839745998 0
0.106666669 -0.00839745998 0
0.103333332 -0.00839745998 0
0.100000001 -0.00839745998 0
0.0966666639 -0.00839745998 0
0.0933333337 -0.00839745998 0
0.0900000036 -0.00839745998 0
0.086666666 -0.00839745998 0
0.0833333358 -0.00839745998 0
0.0799999982 -0.00839745998 0
0.0766666681 -0.00839745998 0
0.0733333305 -0.00839745998 0
0.0700000003 -0.00839745998 0
0.0666666701 -0.00839745998 0
0.0633333325 -0.00839745998 0
0.0599999987 -0.00839745998 0
0.0566666685 -0.00839745998 0
0.0533333346 -0.00839745998 0
0.0500000007 -0.00839745998 0
0.148333326 -0.0112842107 0
0.144999996 -0.0112842107 0
0.141666666 -0.0112842107 0
0.138333336 -0.0112842107 0
0.135000005 -0.0112842107 0
0.13166666 -0.0112842107 0
0.12833333 -0.0112842107 0
0.125 -0.0112842107 0
0.12166667 -0.0112842107 0
0.118333332 -0.0112842107 0
0.115000002 -0.0112842107 0
0.111666664 -0.0112842107 0
0.108333334 -0.0112842107 0
0.104999997 -0.0112842107 0
0.101666667 -0.0112842107 0
0.0983333364 -0.0112842107 0
0.0949999988 -0.0112842107 0
0.0916666687 -0.0112842107 0
0.088333331 -0.0112842107 0
0.0850000009 -0.0112842107 0
0.0816666633 -0.0112842107 0
0.0783333331 -0.0112842107 0
0.075000003 -0.0112842107 0
0.0716666654 -0.0112842107 0
0.0683333352 -0.0112842107 0
0.0649999976 -0.0112842107 0
0.0616666675 -0.0112842107 0
0.0583333336 -0.0112842107 0
0.0549999997 -0.0112842107 0
0.0516666658 -0.0112842107 0
0.0483333319 -0.0112842107 0
0.146666661 -0.0141709624 0
0.143333331 -0.0141709624 0
0.140000001 -0.0141709624 0
0.13666667 -0.0141709624 0
0.13333334 -0.0141709624 0
0.129999995 -0.0141709624 0
0.126666665 -0.0141709624 0
0.123333335 -0.0141709624 0
0.119999997 -0.0141709624 0
0.116666667 -0.0141709624 0
0.113333337 -0.0141709624 0
0.109999999 -0.0141709624 0
0.106666669 -0.0141709624 0
0.103333332 -0.0141709624 0
0.100000001 -0.0141709624 0
0.0966666639 -0.0141709624 0
0.0933333337 -0.0141709624 0
0.0900000036 -0.0141709624 0
0.086666666 -0.0141709624 0
0.0833333358 -0.0141709624 0
0.0799999982 -0.0141709624 0
0.0766666681 -0.0141709624 0
0.0733333305 -0.0141709624 0
0.0700000003 -0.0141709624 0
0.0666666701 -0.0141709624 0
0.0633333325 -0.0141709624 0
0.0599999987 -0.0141709624 0
0.0566666685 -0.0141709624 0
0.0533333346 -0.0141709624 0
0.0500000007 -0.0141709624 0
0.0466666669 -0.0141709624 0
0.144999996 -0.0170577131 0
0.141666666 -0.0170577131 0
0.138333336 -0.0170577131 0
0.135000005 -0.0170577131 0
0.13166666 -0.0170577131 0
0.12833333 -0.0170577131 0
0.125 -0.0170577131 0
0.12166667 -0.0170577131 0
0.118333332 -0.0170577131 0
0.115000002 -0.0170577131 0
0.111666664 -0.0170577131 0
0.108333334 -0.0170577131 0
0.104999997 -0.0170577131 0
0.101666667 -0.0170577131 0
0.0983333364 -0.0170577131 0
0.0949999988 -0.0170577131 0
0.0916666687 -0.0170577131 0
0.088333331 -0.0170577131 0
0.0850000009 -0.0170577131 0
0.0816666633 -0.0170577131 0
0.0783333331 -0.0170577131 0
0.075000003 -0.0170577131 0
0.0716666654 -0.0170577131 0
0.0683333352 -0.0170577131 0
0.0649999976 -0.0170577131 0
0.0616666675 -0.0170577131 0
0.0583333336 -0.0170577131 0
0.0549999997 -0.0170577131 0
0.0516666658 -0.0170577131 0
0.0483333319 -0.0170577131 0
0.0450000018 -0.0170577131 0
0.143333331 -0.0199444648 0
0.140000001 -0.0199444648 0
0.13666667 -0.0199444648 0
0.13333334 -0.0199444648 0
0.129999995 -0.0199444648 0
0.126666665 -0.0199444648 0
0.123333335 -0.0199444648 0
0.119999997 -0.0199444648 0
0.116666667 -0.0199444648 0
0.113333337 -0.0199444648 0
0.109999999 -0.0199444648 0
0.106666669 -0.0199444648 0
0.103333332 -0.0199444648 0
0.100000001 -0.0199444648 0
0.0966666639 -0.0199444648 0
0.0933333337 -0.0199444648 0
0.0900000036 -0.0199444648 0
0.086666666 -0.0199444648 0
0.0833333358 -0.0199444648 0
0.0799999982 -0.0199444648 0
0.0766666681 -0.0199444648 0
0.0733333305 -0.0199444648 0
0.0700000003 -0.0199444648 0
0.0666666701 -0.0199444648 0
0.0633333325 -0.0199444648 0
0.0599999987 -0.0199444648 0
0.0566666685 -0.0199444648 0
0.0533333346 -0.0199444648 0
0.0500000007 -0.0199444648 0
0.0466666669 -0.0199444648 0
0.043333333 -0.0199444648 0
0.141666666 -0.0228312165 0
0.138333336 -0.0228312165 0
0.135000005 -0.0228312165 0
0.13166666 -0.0228312165 0
0.12833333 -0.0228312165 0
0.125 -0.0228312165 0
0.12166667 -0.0228312165 0
0.118333332 -0.0228312165 0
0.115000002 -0.0228312165 0
0.111666664 -0.0228312165 0
0.108333334 -0.0228312165 0
0.104999997 -0.0228312165 0
0.101666667 -0.0228312165 0
0.0983333364 -0.0228312165 0
0.0949999988 -0.0228312165 0
0.0916666687 -0.0228312165 0
0.088333331 -0.0228312165 0
0.0850000009 -0.0228312165 0
0.0816666633 -0.0228312165 0
0.0783333331 -0.0228312165 0
0.075000003 -0.0228312165 0
0.0716666654 -0.0228312165 0
0.0683333352 -0.0228312165 0
0.0649999976 -0.0228312165 0
0.0616666675 -0.0228312165 0
0.0583333336 -0.0228312165 0
0.0549999997 -0.0228312165 0
0.0516666658 -0.0228312165 0
0.0483333319 -0.0228312165 0
0.0450000018 -0.0228312165 0
0.0416666679 -0.0228312165 0
0.140000001 -0.0257179681 0
0.13666667 -0.0257179681 0
0.13333334 -0.0257179681 0
0.129999995 -0.0257179681 0
0.126666665 -0.0257179681 0
0.123333335 -0.0257179681 0
0.119999997 -0.0257179681 0
0.116666667 -0.0257179681 0
0.113333337 -0.0257179681 0
0.109999999 -0.0257179681 0
0.106666669 -0.0257179681 0
0.103333332 -0.0257179681 0
0.100000001 -0.0257179681 0
0.0966666639 -0.0257179681 0
0.0933333337 -0.0257179681 0
0.0900000036 -0.0257179681 0
0.086666666 -0.0257179681 0
0.0833333358 -0.0257179681 0
0.0799999982 -0.0257179681 0
0.0766666681 -0.0257179681 0
0.0733333305 -0.0257179681 0
0.0700000003 -0.0257179681 0
0.0666666701 -0.0257179681 0
0.0633333325 -0.0257179681 0
0.0599999987 -0.0257179681 0
0.0566666685 -0.0257179681 0
0.0533333346 -0.0257179681 0
0.0500000007 -0.0257179681 0
0.0466666669 -0.0257179681 0
0.043333333 -0.0257179681 0
0.0399999991 -0.0257179681 0
0.138333336 -0.0286047198 0
0.135000005 -0.0286047198 0
0.13166666 -0.0286047198 0
0.12833333 -0.0286047198 0
0.125 -0.0286047198 0
0.12166667 -0.0286047198 0
0.118333332 -0.0286047198 0
0.115000002 -0.0286047198 0
0.111666664 -0.0286047198 0
0.108333334 -0.0286047198 0
0.104999997 -0.0286047198 0
0.101666667 -0.0286047198 0
0.0983333364 -0.0286047198 0
0.0949999988 -0.0286047198 0
0.0916666687 -0.0286047198 0
0.088333331 -0.0286047198 0
0.0850000009 -0.0286047198 0
0.0816666633 -0.0286047198 0
0.0783333331 -0.0286047198 0
0.075000003 -0.0286047198 0
0.0716666654 -0.0286047198 0
0.0683333352 -0.0286047198 0
0.0649999976 -0.0286047198 0
0.0616666675 -0.0286047198 0
0.0583333336 -0.0286047198 0
0.0549999997 -0.0286047198 0
0.0516666658 -0.0286047198 0
0.0483333319 -0.0286047198 0
0.0450000018 -0.0286047198 0
0.0416666679 -0.0286047198 0
0.038333334 -0.0286047198 0
0.13666667 -0.0314914696 0
0.13333334 -0.0314914696 0
0.129999995 -0.0314914696 0
0.126666665 -0.0314914696 0
0.123333335 -0.0314914696 0
0.119999997 -0.0314914696 0
0.116666667 -0.0314914696 0
0.113333337 -0.0314914696 0
0.109999999 -0.0314914696 0
0.106666669 -0.0314914696 0
0.103333332 -0.0314914696 0
0.100000001 -0.0314914696 0
0.0966666639 -0.0314914696 0
0.0933333337 -0.0314914696 0
0.0900000036 -0.0314914696 0
0.086666666 -0.0314914696 0
0.0833333358 -0.0314914696 0
0.0799999982 -0.0314914696 0
0.0766666681 -0.0314914696 0
0.0733333305 -0.0314914696 0
0.0700000003 -0.0314914696 0
0.0666666701 -0.0314914696 0
0.0633333325 -0.0314914696 0
0.0599999987 -0.0314914696 0
0.0566666685 -0.0314914696 0
0.0533333346 -0.0314914696 0
0.0500000007 -0.0314914696 0
0.0466666669 -0.0314914696 0
0.043333333 -0.0314914696 0
0.0399999991 -0.0314914696 0
0.0366666652 -0.0314914696 0
0.135000005 -0.0343782231 0
0.13166666 -0.0343782231 0
0.12833333 -0.0343782231 0
0.125 -0.0343782231 0
0.12166667 -0.0343782231 0
0.118333332 -0.0343782231 0
0.115000002 -0.0343782231 0
0.111666664 -0.0343782231 0
0.108333334 -0.0343782231 0
0.104999997 -0.0343782231 0
0.101666667 -0.0343782231 0
0.0983333364 -0.0343782231 0
0.0949999988 -0.0343782231 0
0.0916666687 -0.0343782231 0
0.088333331 -0.0343782231 0
0.0850000009 -0.0343782231 0
0.0816666633 -0.0343782231 0
0.0783333331 -0.0343782231 0
0.075000003 -0.0343782231 0
0.0716666654 -0.0343782231 0
0.0683333352 -0.0343782231 0
0.0649999976 -0.0343782231 0
0.0616666675 -0.0343782231 0
0.0583333336 -0.0343782231 0
0.0549999997 -0.0343782231 0
0.0516666658 -0.0343782231 0
0.0483333319 -0.0343782231 0
0.0450000018 -0.0343782231 0
0.0416666679 -0.0343782231 0
0.038333334 -0.0343782231 0
0.0350000001 -0.0343782231 0
0.13333334 -0.0372649729 0
0.129999995 -0.0372649729 0
0.126666665 -0.0372649729 0
0.123333335 -0.0372649729 0
0.119999997 -0.0372649729 0
0.116666667 -0.0372649729 0
0.113333337 -0.0372649729 0
0.109999999 -0.0372649729 0
0.106666669 -0.0372649729 0
0.103333332 -0.0372649729 0
0.100000001 -0.0372649729 0
0.0966666639 -0.0372649729 0
0.0933333337 -0.0372649729 0
0.0900000036 -0.0372649729 0
0.086666666 -0.0372649729 0
0.0833333358 -0.0372649729 0
0.0799999982 -0.0372649729 0
0.0766666681 -0.0372649729 0
0.0733333305 -0.0372649729 0
0.0700000003 -0.0372649729 0
0.0666666701 -0.0372649729 0
0.0633333325 -0.0372649729 0
0.0599999987 -0.0372649729 0
0.0566666685 -0.0372649729 0
0.0533333346 -0.0372649729 0
0.0500000007 -0.0372649729 0
0.0466666669 -0.0372649729 0
0.043333333 -0.0372649729 0
0.0399999991 -0.0372649729 0
0.0366666652 -0.0372649729 0
0.0333333351 -0.0372649729 0
0.13166666 -0.0401517227 0
0.12833333 -0.0401517227 0
0.125 -0.0401517227 0
0.12166667 -0.0401517227 0
0.118333332 -0.0401517227 0
0.115000002 -0.0401517227 0
0.111666664 -0.0401517227 0
[...]
POINT_DATA 961
SCALARS Temp float 1
LOOKUP_TABLE default
259.4652817582673
211.91446515819683
182.9431025604103
168.50251347178659
162.2183990885369
159.75632915135068
158.86509754362905
158.56121833721815
158.4622895457478
158.43124257209578
158.42178329200067
158.41897524700573
158.41815750225487
158.41792336447506
158.4178591534772
158.41783833219154
158.41783366836373
158.41783083377794
158.41783314508405
158.41783549606131
158.41784900813738
158.41792365954058
158.41830552199886
158.42026583964875
158.42986355209283
158.47450806835218
158.66826519689792
159.43288447420645
162.07501436841167
169.71871916758488
188.04682792321728
211.91449729326555
169.98710963751344
147.29435327134132
136.5995354564493
132.1350016912429
130.43707343385546
129.83529124918445
129.63323307100325
129.56821016610678
129.54798866436155
129.5418747228605
129.54006805704654
129.53954493191654
129.53939619708424
129.539352426139
129.53934267722641
129.53934007671475
129.53934005786346
129.53934026318018
129.53934632026622
129.53938013070692
129.5395564392866
129.5404743988023
129.5450053279602
129.5663620379621
129.66094921306043
130.04625917012325
131.44674930761272
135.81838940391805
147.10676295289304
169.718741970309
182.94305111399177
147.29433814066655
128.13812861781415
119.1770591360608
115.43738709934861
114.0101858642072
113.50183176328791
113.33026015049998
113.27478255310655
113.25745642971029
113.25220041052933
113.25064284092015
113.2501905796009
113.25006174927648
113.2500259234373
113.25001518370992
113.25001163276191
113.25001266553667
113.25001508142907
113.25002931587247
113.25010526168363
113.25049613603069
113.2524295276378
113.26158634453398
113.30251925739866
113.47218663578062
114.10899511432125
116.21034103041985
122.11938437459207
135.81838255668683
162.07503012326214
168.5024550837188
136.59951501635243
119.17705991839436
110.91782687268166
107.43456675292359
106.09393663259002
105.61320261481568
105.45009400820553
105.3971350523015
105.38054275461134
105.37549398612346
105.37399510369215
105.37355928589437
105.37343425499616
105.37339991123382
105.37339024128437
105.37338820253669
105.37338819584575
105.37339366031327
105.37342369766735
105.373577523452
105.37434108931723
105.37794998330904
105.39411947570336
105.46173677528625
105.72075232524158
106.60992508648918
109.28620530277588
116.21034801096467
131.44675827376506
159.43286112425733
162.2183451853845
132.13498131001177
115.43738342197253
107.43457871954462
104.03497801544496
102.72020126671147
102.247158641278
102.08627798234673
102.03395237722339
102.0175372784767
102.0125378931123
102.01105252362082
102.01062038983068
102.01049709245966
102.0104621358182
102.01045237158283
102.01045044064836
102.01045185310159
102.01046291920476
102.01052032502729
102.01080296122112
102.01213296367942
102.01808330352904
102.04306199087291
102.14000772685972
102.48238054606657
103.56661838542058
106.60992237303522
114.10899226457667
130.04624919948927
158.66824919024154
159.75627393350175
130.43706428318617
114.01019117928108
106.09392465701299
102.72019793644039
101.41282316200132
100.94184645149872
100.78153360269184
100.72936282107945
100.7129889676063
100.7080008016957
100.70651846874604
100.70608703226733
100.70596386884999
100.70592919253065
100.70591981066923
100.70591786780544
100.70592116641207
100.70594131017097
100.70604041167546
100.70650501742318
100.70857505153063
100.71727109565023
100.75131171452851
100.87405408271526
101.27788013748241
102.48238018493637
105.72075236181573
113.47218826753159
129.66092818179104
158.47449693267495
158.865053642626
129.83528440004346
113.50184688921532
105.61318911199103
102.24715602179488
100.94184638228758
100.47141304470577
100.31124292451153
100.2591090725187
100.24274490665219
100.23775927562137
100.23627759870706
100.23584645600484
100.2357231857698
100.23568853012918
100.23567921495668
100.23567794843876
100.23568413131493
100.23571732559039
100.23587246905426
100.2365603867941
100.23944753422745
100.25081381486814
100.29244458679435
100.43347686295698
100.8740537299192
102.14000624956907
105.46173335377323
113.30251471381278
129.5663589449684
158.42987676373372
158.56120009250984
129.6332370042229
113.33023356779235
105.45008603262096
102.08627787360956
100.78153485763616
100.31124290869474
100.15110821336118
100.0989830152646
100.08262112487418
100.07763605040782
100.07615450864765
100.07572338078506
100.07560016320573
100.07556558813624
100.07555640550083
100.07555602270133
100.07556613592205
100.07561587065315
100.07583601303118
100.07675822098105
100.08040273491257
100.09391424934424
100.14075139384177
100.29244447927675
100.75131155718778
102.0430617815593
105.39411905364621
113.26157979868552
129.5449927796086
158.42026843139567
158.46226835926345
129.568246882148
113.27476414160438
105.39713193426182
102.03395383187986
100.72936242913276
100.259109119586
100.09898318932711
100.04686005239208
100.03049868880608
100.02551373338302
100.02403223756295
100.02360110023213
100.02347789601657
100.02344336809792
100.02343445697878
100.02343522092741
100.02345008011378
100.02351817050415
100.02380339671971
100.02493375083682
100.02916512839114
100.04410700771794
100.09391430115734
100.25081373260693
100.71727078836956
102.01808310788148
105.37794846136411
113.25243289893113
129.54048349579318
158.4183289560878
158.43133018840183
129.54797490351086
113.25745702670514
105.38054518274969
102.01754109605974
100.71298904986433
100.24274522013948
100.08262113018324
100.03049867838443
100.01413739974615
100.00915248576398
100.00767099274157
100.00723986414914
100.00711668118802
100.00708222253252
100.00707363718429
100.00707572626479
100.00709562261498
100.00718133302443
100.00752229262136
100.00880893377976
100.01342207782861
100.02916510572206
100.08040269733337
100.23944754079882
100.70857505696351
102.01213319966689
105.37433617101689
113.25048949332403
129.5395478487942
158.4179258939619
158.4219612991267
129.5418655822715
113.25220306614324
105.37549758745732
102.01253694575715
100.70800099423896
100.23775970109305
100.07763602952726
100.02551375134865
100.0091524844432
100.00416758058144
100.00268608708573
100.00225496556901
100.00213180311717
100.00209743615768
100.00208921261823
100.00209265457441
100.0021172181426
100.00221752143538
100.0025991694734
100.00398528801537
100.0088089394302
100.02493375716948
100.07675819094304
100.23656031319132
100.70650490164006
102.01080222818482
105.37357787398666
113.25010907520414
129.5393894267901
158.4178344554102
158.41896198477576
129.54005329275648
113.25064385567451
105.37399991282781
102.01105084941919
100.70651869153745
100.23627739586061
100.07615451413011
100.02403219381304
100.00767099250362
100.0026860898583
100.0012045978697
100.0007734845243
100.00065034747976
100.00061607890612
100.00060821282963
100.00061286741473
100.00064118138344
100.00075187771486
100.00115893158518
100.00259917316195
100.00752229729035
100.0238033869986
100.07583606304448
100.23587261478009
100.70604112554938
102.01051970485506
105.3734221965115
113.25002994171555
129.5393432909292
158.41782618234788
158.41811522816715
129.53953551631767
113.25019628625519
105.37355451722615
102.0106201459261
100.7060881748526
100.23584631615707
100.075723478281
100.0236010735362
100.00723986960678
100.00225496369507
100.00077348364549
100.00034238282917
100.00021927752869
100.00018510694653
100.00017755496326
100.00018316093636
100.0002140879044
100.00033116315171
100.00075187633993
100.00221752066884
100.00718133975897
100.02351813915915
100.07561586267732
100.2357172975891
100.705941102537
102.0104626729923
105.37339293092901
113.25001702523116
129.539317432288
158.41784591220056
158.41786784532
129.53937916779702
113.25006866803346
105.37342883556477
102.010497024047
100.70596319378751
100.23572315686533
100.07560009133496
100.02347788059603
100.00711669023724
100.00213179993119
100.00065034708311
100.00021927742861
100.00009621953438
100.0000621460787
100.00005484444351
100.00006110618966
100.00009361616866
100.00021408775656
100.00064118171147
100.00211721731327
100.00709562703933
100.02345007957052
100.07556619772231
100.23568433233288
100.7059208739954
102.01045100596491
105.37338613205995
113.25001112339356
129.5393443807951
158.417835651668
158.41781424635434
129.53935022718494
113.25001474287788
105.37339877340675
102.01046483435098
100.70592889309471
100.2356888437898
100.07556553988537
100.02344336199553
100.00708222015149
100.00209743540343
100.00061607938464
100.00018510684704
100.0000621461283
100.00002818881747
100.00002108361272
100.00002775294553
100.00006110613087
100.00018316070734
100.00061286688327
100.00209265502501
100.00707572420393
100.02343519629767
100.07555600942754
100.23567784527062
100.70591772312302
102.01045006923383
105.37338741284059
113.25000402329246
129.5393349487304
158.41780873268146
158.41779944795996
129.53935456508162
113.25000773775791
105.37339091855031
102.01045078207065
100.70591959248647
100.23567895661981
100.07555639284598
100.02343446880354
100.00707363283604
100.0020892127304
100.00060821173926
100.00017755496542
100.00005484436493
100.0000210836099
100.00001416451421
100.00002108362474
100.00005484438236
100.0001775552356
100.00060821224362
100.00208921180862
100.00707364249885
100.02343445600167
100.07555646597945
100.23567908867152
100.70591942840811
102.01045200752225
105.37338831192923
113.2500173064034
129.53932998825937
158.41783168342687
158.41786091942814
129.53933093626745
113.25001683862659
105.37339424503135
102.01044942635764
100.70591856856943
100.23567780920622
100.07555605739135
100.02343519364354
100.00707573023928
100.00209265808755
100.00061286672944
100.00018316120173
100.00006110614669
100.00002775295958
100.00002108363721
100.0000281888422
100.0000621460213
100.00018510693819
100.00061607853122
100.00209743356665
100.00708222015646
100.02344334295806
100.07556553969306
100.23568851868121
100.70592913986111
102.01046221744724
105.37339417198694
113.25002271642829
129.5393401900531
158.41785484714424
158.41791119231942
129.5393310376106
113.25001740723384
105.3733826816895
102.01045115567335
100.70592035138739
100.23568407556567
100.07556623051434
100.02345004866946
100.0070956306146
100.0021172158329
100.00064118085166
100.00021408770536
100.00009361612031
100.00006110621497
100.0000548444659
100.00006214608511
100.00009621961256
100.00021927757679
100.00065034675515
100.00213180254867
100.00711668494608
100.02347790033274
100.07560012703243
100.23572309906253
100.70596368065324
102.01049616370126
105.37343435152685
113.25005753838883
129.53939370330585
158.41794452740905
158.41780201485162
129.53932681756584
113.2500226117371
105.37338704298278
102.01046318231208
100.70594042403137
100.23571726806472
100.0756158036688
100.02351814450954
100.007181345538
100.00221751877629
100.00075187756948
100.00033116306844
100.00021408784326
100.00018316090078
100.00017755494022
100.00018510692283
100.00021927762977
100.00034238268505
100.00077348351117
100.00225496498464
100.0072398682476
100.02360108953815
100.07572342356197
100.23584657809637
100.70608767596114
102.01061954821283
105.37356028210876
113.25019221669037
129.5395505445897
158.41817136465897
158.41779843308913
129.5393466317014
113.25001809181735
105.3734214501302
102.01051805776297
100.7060404090715
100.2358727398758
100.07583598093863
100.02380340260275
100.0075222934741
100.00259917053188
100.00115893139255
100.00075187749415
100.00064118143035
100.0006128676214
100.0006082128247
100.00061607890423
100.00065034756994
100.00077348435173
100.00120459858579
100.00268608806647
100.0076709983495
100.02403220440033
100.07615449344271
100.23627754414034
100.70651823731151
102.01105247968323
105.37399157406355
113.25064005404928
129.54006239555122
158.41898145518337
158.41782421352008
129.53938876897726
113.25009369821494
105.37357868656802
102.01080054700664
100.70650493413851
100.23656017902479
100.076758220671
100.02493377803991
100.0088089336522
100.00398529219477
100.00259916979681
100.00221752115806
100.0021172176874
100.00209265426219
100.00208921264925
100.00209743672934
100.00213180295322
100.00225496571397
100.0026860875249
100.00416757990651
100.00915248923295
100.02551373162522
100.07763610632735
100.23775946319616
100.70800051040675
102.01253816055369
105.37549223328148
113.25220044438751
129.54187465371936
158.42178632329305
158.4179088466714
129.53952221260695
113.25048848942211
105.37433273463664
102.01213171417648
100.70857555702244
100.23944733499775
100.08040275073925
100.02916509522294
100.01342206993928
100.00880893260651
100.0075222910489
100.00718133259988
100.0070956248684
100.00707572634506
100.00707363714275
100.00708222319466
100.00711668057846
100.00723986452077
100.00767099230136
100.00915248807617
100.01413740139785
100.03049866765315
100.08262115952319
100.24274497794877
100.71298940789097
102.01753689169125
105.3805419011102
113.2574606183839
129.54799173838933
158.43122615668378
158.4183631357304
129.54047332072153
113.25244420854722
105.37794891723546
102.01808497232682
100.71727098934574
100.25081402243968
100.09391445023937
100.04410704236922
100.02916518429646
100.02493379672799
100.02380343323472
100.02351820431211
100.0234501157083
100.023435260683
100.02343450191229
100.02344340561888
100.02347793688675
100.02360114010766
100.02403227378166
100.02551377246016
100.03049871256336
100.04686009096257
100.09898306921018
100.25910877518021
100.7293623403913
102.03395055964432
105.39712971297796
113.27477391729012
129.56817777161828
158.46225260851836
158.42026240073375
129.54501137226745
113.26158286063571
105.39411988606388
102.04306460655185
100.75131152313111
100.2924448765297
100.140751536605
100.09391436560348
100.08040285153734
100.07675832918699
100.07583612894274
100.07561601667824
100.07556626337687
100.0755561490998
100.07555653592591
100.0755657072706
100.07560028943084
100.0757235057159
100.07615463746122
100.07763616089116
100.08262123200727
100.098983126194
100.15110818203667
100.31124301450697
100.78153313184053
102.08627664159015
105.45009029100585
113.33025541327929
129.63322631115724
158.56122899415402
158.4298539244444
129.56638198421766
113.30251512899721
105.46173661965196
102.14000600033494
100.87405429187405
100.43347728426262
100.29244474715387
100.25081404432966
100.23944777330182
100.23656054554276
100.23587261258808
100.23571748940397
100.23568433772881
100.23567819401815
100.23567939112276
100.23568873951318
100.23572338598518
100.2358466248309
100.23627778031373
100.23775942857321
100.24274507405066
100.25910919041756
100.31124307633468
100.47141339668438
100.94184604772286
102.24715798089903
105.61320213136008
113.50183020082919
129.83529506652553
158.8651176316336
158.4745304916882
129.66092689093088
113.47218271439739
105.72075509726778
102.48237848427655
101.2778804948792
100.8740541849955
100.75131172261496
100.71727101130455
100.70857489166542
100.70650494441536
100.70604061120306
100.70594139222024
100.7059212289507
100.70591792350412
100.70591979770573
100.70592923981897
100.7059638958604
100.70608705808958
100.70651833936357
100.7080007344861
100.7129889929761
100.72936277880208
100.78153375495236
100.94184617505904
101.41282381329763
102.72020299578702
106.09394077206507
114.01019293307951
130.43708084823533
159.75633937685174
158.6682797062867
130.04623083248984
114.10898844023362
106.60991654615738
103.56661706083173
102.48237982028066
102.14000631668459
102.04306062281029
102.01808211319567
102.01213126863288
102.01080128538324
102.01051885329528
102.01046177569003
102.01045085054545
102.01044895476494
102.01045119301929
102.01046087631514
102.01049552725583
102.01061877737277
102.01105078192953
102.01253632077845
102.0175357937869
102.03395146052479
102.08627696583437
102.24715723172335
102.72020174859959
104.03498386179442
107.43457073011903
115.43738400133843
132.13499812508837
162.21838050217815
159.43285396143736
131.44675400116904
116.2103619906641
109.28621007029406
106.60993392426089
105.72076033037276
105.4617434889167
105.39412520563516
105.37795502849025
105.37434693795203
105.37358532641386
105.37343120276498
105.37340067478063
105.37339477208111
105.37339482041972
105.37339727471425
105.37340656069397
105.3734404684639
105.37356447273487
105.37400092770547
105.37550079208054
105.38054969421091
105.39714214432844
105.45010065460554
105.61320989795921
106.09394634709433
107.43457788024908
110.91782479776941
119.17705209296136
136.599506980717
168.50248144457288
162.07500572702762
135.81839436360548
122.11939049376564
116.2103565907504
114.10901120082235
113.47219833052951
113.3025298632183
113.26159697111869
113.25243808329786
113.25050621283368
113.25011791113144
113.25004284228771
113.25002725583971
113.2500235076074
113.25002500002675
113.25002773409369
113.25003576403648
113.25007012755574
113.25019874238313
113.25065328597553
113.25221281860021
113.25747098181749
113.27479493682425
113.33027083365229
113.50184505790847
114.01019950637976
115.43739158111387
119.17706109051673
128.13812644921208
147.29434538874887
182.94312370392666
169.71871773836673
147.1067684060331
135.8183978125662
131.44676962007424
130.04627127836665
129.66095628971541
129.5663644381814
129.54500204095595
129.54047415204388
129.53957182767385
129.5393970507915
129.53935290581833
129.539344037002
129.5393503904904
129.53935246343477
129.53934947973582
129.53935443843915
129.53939220653498
129.53954656136486
129.54007884415913
129.5418885402849
129.5479979746785
129.5682164241329
129.6332430910781
129.83530445566467
130.437084672479
132.13500094758453
136.5995300280642
147.29434811152328
169.98712527504244
211.91448735517835
188.04678730949607
169.71871485082852
162.0750561457444
159.4328966394429
158.66826534846905
158.47450570200357
158.42985685536064
158.42022847740841
158.41830635626798
158.4179590735526
158.41785348677865
158.4178191816724
158.41783420267777
158.4178521931251
158.41783726062314
158.41783475647424
158.41783283983986
158.41789959966675
158.41815687565187
158.41899631715515
158.4217975917795
158.4312361832888
158.46229034746256
158.56122270552086
158.86510506249672
159.75632816834624
162.21838813362692
168.5024992600124
182.9430977464733
211.91445931329676
259.4649627629468
