# vtk DataFile Version 2.0
Unstructured Grid Example
ASCII
DATASET UNSTRUCTURED_GRID

POINTS 961 float
0.150000006 -0.00839745998 0
0.146666661 -0.00839745998 0
0.143333331 -0.00839745998 0
0.140000001 -0.00839745998 0
0.13666667 -0.00839745998 0
0.13333334 -0.00839745998 0
0.129999995 -0.00839745998 0
0.126666665 -0.00839745998 0
0.123333335 -0.00839745998 0
0.119999997 -0.00839745998 0
0.116666667 -0.00839745998 0
0.113333337 -0.00839745998 0
0.109999999 -0.00839745998 0
0.106666669 -0.00839745998 0
0.103333332 -0.00839745998 0
0.100000001 -0.00839745998 0
0.0966666639 -0.00839745998 0
0.0933333337 -0.00839745998 0
0.0900000036 -0.00839745998 0
0.086666666 -0.00839745998 0
0.0833333358 -0.00839745998 0
0.0799999982 -0.00839745998 0
0.0766666681 -0.00839745998 0
0.0733333305 -0.00839745998 0
0.0700000003 -0.00839745998 0
0.0666666701 -0.00839745998 0
0.0633333325 -0.00839745998 0
0.0599999987 -0.00839745998 0
0.0566666685 -0.00839745998 0
0.0533333346 -0.00839745998 0
0.0500000007 -0.00839745998 0
0.148333326 -0.0112842107 0
0.144999996 -0.0112842107 0
0.141666666 -0.0112842107 0
0.138333336 -0.0112842107 0
0.135000005 -0.0112842107 0
0.13166666 -0.0112842107 0
0.12833333 -0.0112842107 0
0.125 -0.0112842107 0
0.12166667 -0.0112842107 0
0.118333332 -0.0112842107 0
0.115000002 -0.0112842107 0
0.111666664 -0.0112842107 0
0.108333334 -0.0112842107 0
0.104999997 -0.0112842107 0
0.101666667 -0.0112842107 0
0.0983333364 -0.0112842107 0
0.0949999988 -0.0112842107 0
0.0916666687 -0.0112842107 0
0.088333331 -0.0112842107 0
0.0850000009 -0.0112842107 0
0.0816666633 -0.0112842107 0
0.0783333331 -0.0112842107 0
0.075000003 -0.0112842107 0
0.0716666654 -0.0112842107 0
0.0683333352 -0.0112842107 0
0.0649999976 -0.0112842107 0
0.0616666675 -0.0112842107 0
0.0583333336 -0.0112842107 0
0.0549999997 -0.0112842107 0
0.0516666658 -0.0112842107 0
0.0483333319 -0.0112842107 0
0.146666661 -0.0141709624 0
0.143333331 -0.0141709624 0
0.140000001 -0.0141709624 0
0.13666667 -0.0141709624 0
0.13333334 -0.0141709624 0
0.129999995 -0.0141709624 0
0.126666665 -0.0141709624 0
0.123333335 -0.0141709624 0
0.119999997 -0.0141709624 0
0.116666667 -0.0141709624 0
0.113333337 -0.0141709624 0
0.109999999 -0.0141709624 0
0.106666669 -0.0141709624 0
0.103333332 -0.0141709624 0
0.100000001 -0.0141709624 0
0.0966666639 -0.0141709624 0
0.0933333337 -0.0141709624 0
0.0900000036 -0.0141709624 0
0.086666666 -0.0141709624 0
0.0833333358 -0.0141709624 0
0.0799999982 -0.0141709624 0
0.0766666681 -0.0141709624 0
0.0733333305 -0.0141709624 0
0.0700000003 -0.0141709624 0
0.0666666701 -0.0141709624 0
0.0633333325 -0.0141709624 0
0.0599999987 -0.0141709624 0
0.0566666685 -0.0141709624 0
0.0533333346 -0.0141709624 0
0.0500000007 -0.0141709624 0
0.0466666669 -0.0141709624 0
0.144999996 -0.0170577131 0
0.141666666 -0.0170577131 0
0.138333336 -0.0170577131 0
0.135000005 -0.0170577131 0
0.13166666 -0.0170577131 0
0.12833333 -0.0170577131 0
0.125 -0.0170577131 0
0.12166667 -0.0170577131 0
0.118333332 -0.0170577131 0
0.115000002 -0.0170577131 0
0.111666664 -0.0170577131 0
0.108333334 -0.0170577131 0
0.104999997 -0.0170577131 0
0.101666667 -0.0170577131 0
0.0983333364 -0.0170577131 0
0.0949999988 -0.0170577131 0
0.0916666687 -0.0170577131 0
0.088333331 -0.0170577131 0
0.0850000009 -0.0170577131 0
0.0816666633 -0.0170577131 0
0.0783333331 -0.0170577131 0
0.075000003 -0.0170577131 0
0.0716666654 -0.0170577131 0
0.0683333352 -0.0170577131 0
0.0649999976 -0.0170577131 0
0.0616666675 -0.0170577131 0
0.0583333336 -0.0170577131 0
0.0549999997 -0.0170577131 0
0.0516666658 -0.0170577131 0
0.0483333319 -0.0170577131 0
0.0450000018 -0.0170577131 0
0.143333331 -0.0199444648 0
0.140000001 -0.0199444648 0
0.13666667 -0.0199444648 0
0.13333334 -0.0199444648 0
0.129999995 -0.0199444648 0
0.126666665 -0.0199444648 0
0.123333335 -0.0199444648 0
0.119999997 -0.0199444648 0
0.116666667 -0.0199444648 0
0.113333337 -0.0199444648 0
0.109999999 -0.0199444648 0
0.106666669 -0.0199444648 0
0.103333332 -0.0199444648 0
0.100000001 -0.0199444648 0
0.0966666639 -0.0199444648 0
0.0933333337 -0.0199444648 0
0.0900000036 -0.0199444648 0
0.086666666 -0.0199444648 0
0.0833333358 -0.0199444648 0
0.0799999982 -0.0199444648 0
0.0766666681 -0.0199444648 0
0.0733333305 -0.0199444648 0
0.0700000003 -0.0199444648 0
0.0666666701 -0.0199444648 0
0.0633333325 -0.0199444648 0
0.0599999987 -0.0199444648 0
0.0566666685 -0.0199444648 0
0.0533333346 -0.0199444648 0
0.0500000007 -0.0199444648 0
0.0466666669 -0.0199444648 0
0.043333333 -0.0199444648 0
0.141666666 -0.0228312165 0
0.138333336 -0.0228312165 0
0.135000005 -0.0228312165 0
0.13166666 -0.0228312165 0
0.12833333 -0.0228312165 0
0.125 -0.0228312165 0
0.12166667 -0.0228312165 0
0.118333332 -0.0228312165 0
0.115000002 -0.0228312165 0
0.111666664 -0.0228312165 0
0.108333334 -0.0228312165 0
0.104999997 -0.0228312165 0
0.101666667 -0.0228312165 0
0.0983333364 -0.0228312165 0
0.0949999988 -0.0228312165 0
0.0916666687 -0.0228312165 0
0.088333331 -0.0228312165 0
0.0850000009 -0.0228312165 0
0.0816666633 -0.0228312165 0
0.0783333331 -0.0228312165 0
0.075000003 -0.0228312165 0
0.0716666654 -0.0228312165 0
0.0683333352 -0.0228312165 0
0.0649999976 -0.0228312165 0
0.0616666675 -0.0228312165 0
0.0583333336 -0.0228312165 0
0.0549999997 -0.0228312165 0
0.0516666658 -0.0228312165 0
0.0483333319 -0.0228312165 0
0.0450000018 -0.0228312165 0
0.0416666679 -0.0228312165 0
0.140000001 -0.0257179681 0
0.13666667 -0.0257179681 0
0.13333334 -0.0257179681 0
0.129999995 -0.0257179681 0
0.126666665 -0.0257179681 0
0.123333335 -0.0257179681 0
0.119999997 -0.0257179681 0
0.116666667 -0.0257179681 0
0.113333337 -0.0257179681 0
0.109999999 -0.0257179681 0
0.106666669 -0.0257179681 0
0.103333332 -0.0257179681 0
0.100000001 -0.0257179681 0
0.0966666639 -0.0257179681 0
0.0933333337 -0.0257179681 0
0.0900000036 -0.0257179681 0
0.086666666 -0.0257179681 0
0.0833333358 -0.0257179681 0
0.0799999982 -0.0257179681 0
0.0766666681 -0.0257179681 0
0.0733333305 -0.0257179681 0
0.0700000003 -0.0257179681 0
0.0666666701 -0.0257179681 0
0.0633333325 -0.0257179681 0
0.0599999987 -0.0257179681 0
0.0566666685 -0.0257179681 0
0.0533333346 -0.0257179681 0
0.0500000007 -0.0257179681 0
0.0466666669 -0.0257179681 0
0.043333333 -0.0257179681 0
0.0399999991 -0.0257179681 0
0.138333336 -0.0286047198 0
0.135000005 -0.0286047198 0
0.13166666 -0.0286047198 0
0.12833333 -0.0286047198 0
0.125 -0.0286047198 0
0.12166667 -0.0286047198 0
0.118333332 -0.0286047198 0
0.115000002 -0.0286047198 0
0.111666664 -0.0286047198 0
0.108333334 -0.0286047198 0
0.104999997 -0.0286047198 0
0.101666667 -0.0286047198 0
0.0983333364 -0.0286047198 0
0.0949999988 -0.0286047198 0
0.0916666687 -0.0286047198 0
0.088333331 -0.0286047198 0
0.0850000009 -0.0286047198 0
0.0816666633 -0.0286047198 0
0.0783333331 -0.0286047198 0
0.075000003 -0.0286047198 0
0.0716666654 -0.0286047198 0
0.0683333352 -0.0286047198 0
0.0649999976 -0.0286047198 0
0.0616666675 -0.0286047198 0
0.0583333336 -0.0286047198 0
0.0549999997 -0.0286047198 0
0.0516666658 -0.0286047198 0
0.0483333319 -0.0286047198 0
0.0450000018 -0.0286047198 0
0.0416666679 -0.0286047198 0
0.038333334 -0.0286047198 0
0.13666667 -0.0314914696 0
0.13333334 -0.0314914696 0
0.129999995 -0.0314914696 0
0.126666665 -0.0314914696 0
0.123333335 -0.0314914696 0
0.119999997 -0.0314914696 0
0.116666667 -0.0314914696 0
0.113333337 -0.0314914696 0
0.109999999 -0.0314914696 0
0.106666669 -0.0314914696 0
0.103333332 -0.0314914696 0
0.100000001 -0.0314914696 0
0.0966666639 -0.0314914696 0
0.0933333337 -0.0314914696 0
0.0900000036 -0.0314914696 0
0.086666666 -0.0314914696 0
0.0833333358 -0.0314914696 0
0.0799999982 -0.0314914696 0
0.0766666681 -0.0314914696 0
0.0733333305 -0.0314914696 0
0.0700000003 -0.0314914696 0
0.0666666701 -0.0314914696 0
0.0633333325 -0.0314914696 0
0.0599999987 -0.0314914696 0
0.0566666685 -0.0314914696 0
0.0533333346 -0.0314914696 0
0.0500000007 -0.0314914696 0
0.0466666669 -0.0314914696 0
0.043333333 -0.0314914696 0
0.0399999991 -0.0314914696 0
0.0366666652 -0.0314914696 0
0.135000005 -0.0343782231 0
0.13166666 -0.0343782231 0
0.12833333 -0.0343782231 0
0.125 -0.0343782231 0
0.12166667 -0.0343782231 0
0.118333332 -0.0343782231 0
0.115000002 -0.0343782231 0
0.111666664 -0.0343782231 0
0.108333334 -0.0343782231 0
0.104999997 -0.0343782231 0
0.101666667 -0.0343782231 0
0.0983333364 -0.0343782231 0
0.0949999988 -0.0343782231 0
0.0916666687 -0.0343782231 0
0.088333331 -0.0343782231 0
0.0850000009 -0.0343782231 0
0.0816666633 -0.0343782231 0
0.0783333331 -0.0343782231 0
0.075000003 -0.0343782231 0
0.0716666654 -0.0343782231 0
0.0683333352 -0.0343782231 0
0.0649999976 -0.0343782231 0
0.0616666675 -0.0343782231 0
0.0583333336 -0.0343782231 0
0.0549999997 -0.0343782231 0
0.0516666658 -0.0343782231 0
0.0483333319 -0.0343782231 0
0.0450000018 -0.0343782231 0
0.0416666679 -0.0343782231 0
0.038333334 -0.0343782231 0
0.0350000001 -0.0343782231 0
0.13333334 -0.0372649729 0
0.129999995 -0.0372649729 0
0.126666665 -0.0372649729 0
0.123333335 -0.0372649729 0
0.119999997 -0.0372649729 0
0.116666667 -0.0372649729 0
0.113333337 -0.0372649729 0
0.109999999 -0.0372649729 0
0.106666669 -0.0372649729 0
0.103333332 -0.0372649729 0
0.100000001 -0.0372649729 0
0.0966666639 -0.0372649729 0
0.0933333337 -0.0372649729 0
0.0900000036 -0.0372649729 0
0.086666666 -0.0372649729 0
0.0833333358 -0.0372649729 0
0.0799999982 -0.0372649729 0
0.0766666681 -0.0372649729 0
0.0733333305 -0.0372649729 0
0.0700000003 -0.0372649729 0
0.0666666701 -0.0372649729 0
0.0633333325 -0.0372649729 0
0.0599999987 -0.0372649729 0
0.0566666685 -0.0372649729 0
0.0533333346 -0.0372649729 0
0.0500000007 -0.0372649729 0
0.0466666669 -0.0372649729 0
0.043333333 -0.0372649729 0
0.0399999991 -0.0372649729 0
0.0366666652 -0.0372649729 0
0.0333333351 -0.0372649729 0
0.13166666 -0.0401517227 0
0.12833333 -0.0401517227 0
0.125 -0.0401517227 0
0.12166667 -0.0401517227 0
0.118333332 -0.0401517227 0
0.115000002 -0.0401517227 0
0.111666664 -0.0401517227 0
[...]
POINT_DATA 961
SCALARS Temp float 1
LOOKUP_TABLE default
296.1205736328116
246.71282364790298
212.52486374232873
192.1056417291526
181.17697984671253
175.8657990066311
173.48996025795867
172.49902122354644
172.10925092213947
171.96330124755244
171.9108743704798
171.89270108304447
171.88658978953129
171.88458842065504
171.8839495248559
171.8837469456149
171.88368585613412
171.88366760107908
171.88367200305447
171.88370952450617
171.88388957744135
171.8846941889922
171.888117495929
171.90198611957095
171.95474288363994
172.14085548208072
172.7400282956136
174.46917824453809
178.8631426896806
188.55632519293772
207.40711853497706
246.71285463793913
201.7791847303312
173.30799852806734
157.05787185463376
148.68638747799005
144.74535297943325
143.02775188784508
142.32629999672037
142.05506413822084
141.95490743185212
141.91934561567
141.90713597824615
141.90306457705472
141.90174114295723
141.9013187745537
141.90118930847925
141.9011504312582
141.9011426935551
141.90115777112746
141.90124580686674
141.90164682992662
141.90337982557165
141.91053040546387
141.938345554113
142.0393301133641
142.37669151912317
143.39713802008626
146.14469060038311
152.6261995012991
165.87434599728684
188.55634983004285
212.52480237754088
173.30797621791328
148.85306057640642
135.09128380442942
128.05552571965896
124.75366838932305
123.31473912039431
122.72602909331518
122.49774816942796
122.41318316984145
122.38306175429233
122.3726881427069
122.3692189541161
122.36808851271904
122.36772852971859
122.36761575873277
122.36758214124755
122.3675816960515
122.36761949434931
122.36780384658523
122.36861220329868
122.37198448081416
122.38531364184523
122.43474962061983
122.60470022175684
123.13874468206075
124.64997271003493
128.44456136713964
136.7875732801776
152.62619224252944
178.86316027436655
192.105567891179
157.0578396002307
135.09128169930645
122.64499914628223
116.23297927296396
113.2003634669625
111.86902396752706
111.32073148734209
111.10690372396778
111.02730685437896
110.99883576627694
110.98899685945204
110.98569694773646
110.98461808900774
110.98427474934405
110.98416788587933
110.98413890337442
110.9841461700078
110.98422326858466
110.9845738533056
110.98605026896075
110.99195545642044
111.01419716897573
111.09234881105579
111.34551456283171
112.09222907320198
114.07291442786203
118.74424077491382
128.44457081404974
146.1446999838095
174.46915261429695
181.17690891714042
148.68635570257223
128.05551563501484
116.23300027490441
110.08615767853543
107.15786581396512
105.86506628115002
105.33031585768954
105.12106253064847
105.04296223316233
105.01496848624687
105.00527844289503
105.00202418775048
105.00095997839603
105.00061979465771
105.0005144732138
105.0004893885708
105.0005122302384
105.0006533358484
105.00126085330035
105.00371014701358
105.01304042217093
105.04637853515943
105.1570256900402
105.49470359938155
106.43309306073544
108.78658221812672
114.07291007901408
124.64996814232464
143.3971264620441
172.74001082304267
175.86572884904956
144.74534116811657
124.75367696371734
113.2003443612434
107.15786013816157
104.26739452182663
102.9876158511718
102.45717059195493
102.24929754568304
102.17162779327502
102.14376631709243
102.13411617337646
102.1308735423083
102.12981289306879
102.12947428944945
102.12937101095574
102.12935098537594
102.12939725258991
102.12963196971307
102.13059225317163
102.13428413450812
102.14764643794305
102.19286499864481
102.33479502510508
102.7449130491108
103.82873699804396
106.43309213457945
112.0922287490892
123.1387464998835
142.37666727551553
172.14084351899314
173.48991239166273
143.02774321523492
123.31475953770338
111.86900445238552
105.86506196304704
102.98761573896475
101.71204257566849
101.18291474620007
100.97544299404775
100.8978934825113
100.87006753706437
100.8604277550338
100.85718838686229
100.8561283813115
100.85579040319266
100.85568911928586
100.85567742805216
100.85575629790816
100.85611331419727
100.85750291184591
100.86258555077087
100.8800594165482
100.93619823233422
101.1038168278286
101.56678945480304
102.74491210901984
105.49470058533454
111.3455088360027
122.60469487989188
142.03932679140814
171.9547562914646
172.4990028229851
142.32630863220518
122.72599677778447
111.32072059622088
105.33031641335594
102.45717368092556
101.18291468953741
100.65417781771131
100.44681934899816
100.36930281707102
100.34148615025585
100.33184899279328
100.32861037370223
100.32755080461185
100.32721365990581
100.32711501745212
100.32711424397255
100.3272338050573
100.32773283722786
100.32958176519975
100.3360234770362
100.3571273369847
100.42190633255119
100.60764442932258
101.10381650230487
102.33479457273297
105.15702542531979
111.09234844685162
122.43474074632518
141.93833226143298
171.901989831157
172.10923746522295
142.0551115619796
122.49772890948965
111.10690028373263
105.12106568239837
102.24929653298504
100.9754430666965
100.44681996371804
100.23949309314419
100.16198538914271
100.13417110872922
100.1245346712696
100.12129622011471
100.12023691552895
100.11990066909739
100.1198055865172
100.11981788411991
100.11998280320041
100.12062800005141
100.12290882818128
100.13050822614748
100.1543920432324
100.22508932757306
100.4219065098091
100.93619803633688
102.19286438227343
105.04637810258473
111.01419508044609
122.38531850086855
141.91054148258337
171.88814325017006
171.96340519185574
141.95489933304268
122.4131867857854
111.02731171857275
105.04296955746116
102.17162798362804
100.89789437386047
100.36930279354569
100.16198533861515
100.08447981002287
100.05666622176336
100.04702995106334
100.04379162389198
100.0427326358862
100.04239747823996
100.04230646948366
100.0423328030099
100.04254271382105
100.04332065717648
100.0459579381566
100.05441883584878
100.0801587289563
100.15439194724019
100.35712722935992
100.88005943528695
102.1476464476104
105.01304089217506
110.99194772930854
122.3719763954988
141.90337046596787
171.88469750485456
171.91106545126672
141.9193405034639
122.38306607322738
110.99884141435291
105.01496613318926
102.14376668378425
100.87006872196861
100.34148608684296
100.13417118549532
100.05666621615569
100.0288528091431
100.01921658913297
100.0159783790188
100.01491973692201
100.01458582578279
100.01449904845599
100.01453885801025
100.01478841037347
100.01567281358939
100.01856861757626
100.02759183824315
100.05441886972915
100.13050825431604
100.3360233699554
100.86258533575412
102.13428387488831
105.0037090282242
110.9860507306465
122.3686172437433
141.90165670891093
171.8838738604683
171.8926873940937
141.90711862191412
122.37268818954769
110.9890033041714
105.00527492483141
102.13411662897292
100.86042707601838
100.33184901525001
100.12453448275507
100.04702994942612
100.01921660649627
100.0095804409375
100.00634236773988
100.0052841162959
100.00495147489774
100.00486865454296
100.00492001466783
100.00520054816448
100.0061604196662
100.00922163175395
100.01856864004179
100.04595796211292
100.1229087920814
100.32958196104093
100.85750339318977
102.13059395649684
105.0012595446809
110.98457137897886
122.36780449511926
141.90124285600757
171.88370021871958
171.88654176552407
141.90304968834994
122.36922455005967
110.98568815539971
105.0020235412308
102.13087616006162
100.8571880285148
100.32861071641399
100.12129611038472
100.0437916519843
100.01597836734639
100.00634236200506
100.00310449759147
100.00204670195109
100.00171527095331
100.0016358000265
100.00169601226142
100.00199807588018
100.00300538434901
100.0061604097968
100.01567280907055
100.04332069240718
100.12062786990236
100.32773280183072
100.85611319370457
102.129631481898
105.000652814999
110.98422211198195
122.36762221186476
141.9011329036391
171.88368528384962
171.88452470197586
141.90171808772917
122.36809555039736
110.98460907677712
105.00095994189849
102.12981112743368
100.85612830283878
100.32755052793077
100.12023685070663
100.04273268294145
100.01491971876975
100.00528411390597
100.00204670112907
100.00098953904175
100.00065927407388
100.00058243588664
100.00064876225966
100.00096419008591
100.00199807476378
100.00520055058657
100.01478840605154
100.04254273771483
100.11998280028396
100.32723402361542
100.85575687845649
102.12939651253518
105.0005105752919
110.98414297190115
122.36758031737185
141.90114695188495
171.8836713107591
171.88389893564278
141.90131414195488
122.3677132333812
110.98427304765652
105.00062489755597
102.12947361338404
100.85579130140565
100.32721351648557
100.11990064725435
100.04239746526625
100.01458582210671
100.00495147813224
100.00171527017513
100.00065927453045
100.00033035022496
100.00025559583206
100.00032584000759
100.0006487617511
100.0016960104517
100.00492001107068
100.01453886037162
100.04233279094353
100.11981777380227
100.32711418272218
100.85567713578406
102.12935065287508
105.00048873956305
110.98413779605484
122.367571290388
141.90114408460852
171.8836589032086
171.88370636727842
141.90120235010056
122.36760647755293
110.9841690410755
105.00051098995415
102.12937059229888
100.85568832828515
100.32711498383478
100.11980563731183
100.04230644963751
100.01449904932946
100.00486864668153
100.00163580005825
100.00058243515582
100.0002555958097
100.00018281629414
100.00025559596281
100.00058243536812
100.00163580216747
100.00486865033338
100.0144990438332
100.04230649609663
100.11980558150842
100.32711523431314
100.85568874918755
102.12937015285068
105.0005135844801
110.98416478546082
122.36761780475963
141.901174741502
171.88373907995037
171.8837167509727
141.90114084090777
122.36758893853846
110.98414844211393
105.00048758316278
102.12935265957657
100.85567706993498
100.32711438181437
100.11981776412986
100.04233282458321
100.01453887837363
100.00492001009965
100.00169601444067
100.00064876191797
100.0003258401496
100.00025559608333
100.00033035047146
100.00065927357218
100.0017152708925
100.00495147224458
100.01458580999648
100.04239746499967
100.11990055833014
100.32721350701466
100.85579035823518
102.12947411685825
105.00061979326938
110.98426539282455
122.36772466097561
141.90130431699473
171.88394549453548
171.88375034718024
141.901133060135
122.36758794732978
110.98413683271743
105.00051098059791
102.12939523367584
100.85575616572547
100.32723414283161
100.11998267211054
100.04254275428971
100.0147883962931
100.0052005447012
100.0019980741801
100.00096418963392
100.00064876251469
100.00058243607496
100.00065927415349
100.00098953973514
100.00204670232044
100.00528411160658
100.01491973368077
100.04273265693169
100.12023693409736
100.32755067058287
100.85612810694616
102.1298123951447
105.00095839025354
110.98461788355735
122.36808322151619
141.90173869108824
171.88461126769462
171.88363745149042
141.9011415801464
122.36762821558014
110.98421284508275
105.00065377316191
102.12962992349743
100.8561131469228
100.32773257557633
100.120627892841
100.04332071850781
100.01567279738346
100.00616041823753
100.00300538358677
100.00199807532701
100.0016960120255
100.00163579985646
100.00171527073124
100.00204670276553
100.00310449646143
100.00634236085334
100.0159783755616
100.04379164413932
100.12129617850469
100.3286105315523
100.85718878031804
102.13087505869586
105.00202250048237
110.98569877108666
122.36922140937205
141.90307191376115
171.88660629624715
171.88366876050168
141.9012449018913
122.36778826850602
110.98457067125892
105.00125632932642
102.13059229032372
100.85750373036026
100.32958166397736
100.12290885094026
100.0459579398002
100.01856862466836
100.0092216299648
100.00616041788838
100.00520054874883
100.00492001593952
100.00486865457978
100.00495147503025
100.00528411687435
100.00634236654022
100.00958044571955
100.01921659617562
100.04702997835363
100.12453453184729
100.3318489294311
100.86042756579337
102.13411566545143
105.00527827871198
110.98899144460891
122.37268507382888
141.90713104324752
171.8927087872797
171.88386279991573
141.90165565313924
122.36859801556524
110.98605207770164
105.00370580808502
102.13428397016898
100.86258487130465
100.33602347116837
100.13050833605266
100.05441884000973
100.02759186302029
100.01856861810757
100.01567281161007
100.01478840825031
100.01453885622853
100.0144990487664
100.0145858288213
100.01491973588354
100.0159783797217
100.01921659209201
100.02885280465694
100.0566662392469
100.13417110418146
100.34148635663458
100.87006808179207
102.14376560550467
105.0149691801621
110.99883323385788
122.38306235897366
141.9193460600138
171.91087659015204
171.88468140184426
141.90334250048733
122.37197602320042
110.99194211127472
105.01303795197073
102.14764751936869
100.88005881862779
100.35712740612387
100.15439189731264
100.08015868972443
100.05441882838753
100.04595792873148
100.04332065674511
100.04254272396545
100.04233280393741
100.04230646978088
100.0423974805019
100.04273263378862
100.04379162615416
100.04702994720749
100.05666623310464
100.08447981896396
100.16198528867713
100.36930292391511
100.89789372145523
102.17162885660271
105.04296160056309
111.02730587142274
122.41318832373247
141.95491075407176
171.9632838353523
171.8881790130323
141.91053136397045
122.38533323250381
111.01419582955768
105.04638184689958
102.19286482395871
100.93619896408548
100.42190706527262
100.2250894766083
100.15439229473039
100.1305084143991
100.12290898511284
100.12062815040574
100.11998295613311
100.11981805456033
100.11980577463424
100.11990083079961
100.12023709044325
100.12129638873795
100.12453482312537
100.13417126923974
100.16198548100704
100.23949325635736
100.4468195821152
100.97544210443284
102.24929652251589
105.12105892887669
111.10689526837594
122.49773693095662
142.05502783329356
172.10921148869053
171.90198304031992
141.93835367525662
122.43474451971878
111.09234996999842
105.15703099859299
102.33479472052181
101.10381775776288
100.60764492008809
100.42190673329185
100.35712775347201
100.3360238594344
100.329582188812
100.32773334535582
100.32723426020905
100.32711469497296
100.32711547438446
100.32721409413857
100.32755125146711
100.32861080880308
100.33184943797168
100.3414865375661
100.36930318221654
100.44681974229461
100.65417773608384
101.1829150318259
102.45716962704618
105.33031358501316
111.32072573955057
122.72602350261798
142.32629131139768
172.4990312505597
171.9547338140483
142.03935236146432
122.60469558698475
111.34551449828685
105.49470020804354
102.74491365719197
101.56679067339212
101.10381724978402
100.93619894647054
100.88006006157056
100.86258602614485
100.85750336605217
100.8561137939324
100.85575689748178
100.85567811922418
100.85568965443551
100.85579101706861
100.85612894712538
100.85718886576052
100.86042825093455
100.87006797727341
100.89789398375379
100.97544331339716
101.18291512075638
101.71204364771249
102.9876148546459
105.86506537082144
111.86902359203218
123.31473700928348
143.02775585676508
173.489984036159
172.1408798802119
142.3766660576268
123.13873979032917
112.09223303601588
106.43308905814547
103.8287378518702
102.74491307497232
102.3347949177938
102.1928647990037
102.14764605660932
102.13428400829795
102.13059263585096
102.12963215690966
102.12939740445847
102.12935110685152
102.12937105209227
102.12947437036851
102.12981288848279
102.13087351610707
102.13411585654936
102.14376615328861
102.17162784648923
102.24929747457769
102.45717103002717
102.98761502671918
104.26739592599338
107.15786940632059
113.20037048422519
124.75367910774558
144.74536411101406
175.8658053267079
172.7400422211025
143.39710618730106
124.6499630897663
114.07290029773107
108.78657973106887
106.4330915598757
105.49470056590887
105.15702311625422
105.04637593231496
105.01303717229476
105.00370700381167
105.00125796810389
105.00065105192999
105.00051017686313
105.00048666060152
105.0005121350688
105.00061718182441
105.00095682093941
105.00202087317389
105.00527505026737
105.01496543609505
105.04295939122835
105.12106062371996
105.33031414043057
105.86506385640931
107.1578671373527
110.0861684493423
116.2329875740396
128.05551767928773
148.68637920492418
181.176952856324
174.46914600461076
146.14469669147027
128.4445892725805
118.7442481830538
114.07292877115674
112.09224127760767
111.34552511086726
111.09235806206136
111.01420537801134
110.99196495812437
110.98606225205508
110.98458574131912
110.98423460541017
110.98415691532038
110.98414978519189
110.98417893961384
110.98428507398734
110.98462765411561
110.98570526536392
110.98900616109981
110.99884653294112
111.02731809405
111.10691516933231
111.32074208719435
111.86903578767411
113.20037910759531
116.23299941235993
122.6449970468724
135.09127626596734
157.05783996245216
192.10560675383195
178.86313434969702
152.62620479284044
136.78758012859998
128.44458181628468
124.64999389540682
123.13875978125792
122.60471416738773
122.4347624211431
122.38532466528858
122.37199770452835
122.36862854968723
122.36782135320732
122.36763544041838
122.36759640903517
122.3675991907412
122.36763148909813
122.36774084425429
122.36809873725845
122.36922929627137
122.37270150887402
122.38307792675879
122.41320170988475
122.49776461853726
122.72604364866729
123.31475654892054
124.75368789480626
128.05552741028637
135.091284538183
148.85305936157658
173.3079879894713
212.52488178077738
188.5563232201995
165.87435014151345
152.62620693266686
146.1447136663645
143.39715095382638
142.3766988377652
142.03933210567024
141.93834147080108
141.91052965519077
141.9033954351707
141.90166524227013
141.90125382204116
141.90116272438348
141.90115426078913
141.9011636191937
141.90119591986112
141.90131940569304
141.9017358232441
141.90306547269503
141.9071473223204
141.9193610891602
141.95491834953322
142.05507145869268
142.32631103662703
143.02776659036888
144.74536838625286
148.6863832160781
157.05786067906928
173.30798828210825
201.7791951831136
246.71283595920323
207.4070757785818
188.55631865467916
178.86318629275328
174.46919225060506
172.74002887774094
172.1408527682372
171.9547338980229
171.9019463716371
171.88811746715717
171.88473101737864
171.8838949791332
171.88369349296875
171.88367344599294
171.88368908789565
171.88368903125235
171.88374172246628
171.88392096711755
171.88456224546704
171.88658831948987
171.89272288318776
171.9108892645333
171.96329544462267
172.10925200213572
172.49902616474495
173.4899707200021
175.86579270404988
181.17696235019147
192.10562105342973
212.52485180476978
246.71280646690101
296.12022493351606
