# vtk DataFile Version 2.0
Unstructured Grid Example
ASCII
DATASET UNSTRUCTURED_GRID

POINTS 961 float
0.150000006 -0.00839745998 0
0.146666661 -0.00839745998 0
0.143333331 -0.00839745998 0
0.140000001 -0.00839745998 0
0.13666667 -0.00839745998 0
0.13333334 -0.00839745998 0
0.129999995 -0.00839745998 0
0.126666665 -0.00839745998 0
0.123333335 -0.00839745998 0
0.119999997 -0.00839745998 0
0.116666667 -0.00839745998 0
0.113333337 -0.00839745998 0
0.109999999 -0.00839745998 0
0.106666669 -0.00839745998 0
0.103333332 -0.00839745998 0
0.100000001 -0.00839745998 0
0.0966666639 -0.00839745998 0
0.0933333337 -0.00839745998 0
0.0900000036 -0.00839745998 0
0.086666666 -0.00839745998 0
0.0833333358 -0.00839745998 0
0.0799999982 -0.00839745998 0
0.0766666681 -0.00839745998 0
0.0733333305 -0.00839745998 0
0.0700000003 -0.00839745998 0
0.0666666701 -0.00839745998 0
0.0633333325 -0.00839745998 0
0.0599999987 -0.00839745998 0
0.0566666685 -0.00839745998 0
0.0533333346 -0.00839745998 0
0.0500000007 -0.00839745998 0
0.148333326 -0.0112842107 0
0.144999996 -0.0112842107 0
0.141666666 -0.0112842107 0
0.138333336 -0.0112842107 0
0.135000005 -0.0112842107 0
0.13166666 -0.0112842107 0
0.12833333 -0.0112842107 0
0.125 -0.0112842107 0
0.12166667 -0.0112842107 0
0.118333332 -0.0112842107 0
0.115000002 -0.0112842107 0
0.111666664 -0.0112842107 0
0.108333334 -0.0112842107 0
0.104999997 -0.0112842107 0
0.101666667 -0.0112842107 0
0.0983333364 -0.0112842107 0
0.0949999988 -0.0112842107 0
0.0916666687 -0.0112842107 0
0.088333331 -0.0112842107 0
0.0850000009 -0.0112842107 0
0.0816666633 -0.0112842107 0
0.0783333331 -0.0112842107 0
0.075000003 -0.0112842107 0
0.0716666654 -0.0112842107 0
0.0683333352 -0.0112842107 0
0.0649999976 -0.0112842107 0
0.0616666675 -0.0112842107 0
0.0583333336 -0.0112842107 0
0.0549999997 -0.0112842107 0
0.0516666658 -0.0112842107 0
0.0483333319 -0.0112842107 0
0.146666661 -0.0141709624 0
0.143333331 -0.0141709624 0
0.140000001 -0.0141709624 0
0.13666667 -0.0141709624 0
0.13333334 -0.0141709624 0
0.129999995 -0.0141709624 0
0.126666665 -0.0141709624 0
0.123333335 -0.0141709624 0
0.119999997 -0.0141709624 0
0.116666667 -0.0141709624 0
0.113333337 -0.0141709624 0
0.109999999 -0.0141709624 0
0.106666669 -0.0141709624 0
0.103333332 -0.0141709624 0
0.100000001 -0.0141709624 0
0.0966666639 -0.0141709624 0
0.0933333337 -0.0141709624 0
0.0900000036 -0.0141709624 0
0.086666666 -0.0141709624 0
0.0833333358 -0.0141709624 0
0.0799999982 -0.0141709624 0
0.0766666681 -0.0141709624 0
0.0733333305 -0.0141709624 0
0.0700000003 -0.0141709624 0
0.0666666701 -0.0141709624 0
0.0633333325 -0.0141709624 0
0.0599999987 -0.0141709624 0
0.0566666685 -0.0141709624 0
0.0533333346 -0.0141709624 0
0.0500000007 -0.0141709624 0
0.0466666669 -0.0141709624 0
0.144999996 -0.0170577131 0
0.141666666 -0.0170577131 0
0.138333336 -0.0170577131 0
0.135000005 -0.0170577131 0
0.13166666 -0.0170577131 0
0.12833333 -0.0170577131 0
0.125 -0.0170577131 0
0.12166667 -0.0170577131 0
0.118333332 -0.0170577131 0
0.115000002 -0.0170577131 0
0.111666664 -0.0170577131 0
0.108333334 -0.0170577131 0
0.104999997 -0.0170577131 0
0.101666667 -0.0170577131 0
0.0983333364 -0.0170577131 0
0.0949999988 -0.0170577131 0
0.0916666687 -0.0170577131 0
0.088333331 -0.0170577131 0
0.0850000009 -0.0170577131 0
0.0816666633 -0.0170577131 0
0.0783333331 -0.0170577131 0
0.075000003 -0.0170577131 0
0.0716666654 -0.0170577131 0
0.0683333352 -0.0170577131 0
0.0649999976 -0.0170577131 0
0.0616666675 -0.0170577131 0
0.0583333336 -0.0170577131 0
0.0549999997 -0.0170577131 0
0.0516666658 -0.0170577131 0
0.0483333319 -0.0170577131 0
0.0450000018 -0.0170577131 0
0.143333331 -0.0199444648 0
0.140000001 -0.0199444648 0
0.13666667 -0.0199444648 0
0.13333334 -0.0199444648 0
0.129999995 -0.0199444648 0
0.126666665 -0.0199444648 0
0.123333335 -0.0199444648 0
0.119999997 -0.0199444648 0
0.116666667 -0.0199444648 0
0.113333337 -0.0199444648 0
0.109999999 -0.0199444648 0
0.106666669 -0.0199444648 0
0.103333332 -0.0199444648 0
0.100000001 -0.0199444648 0
0.0966666639 -0.0199444648 0
0.0933333337 -0.0199444648 0
0.0900000036 -0.0199444648 0
0.086666666 -0.0199444648 0
0.0833333358 -0.0199444648 0
0.0799999982 -0.0199444648 0
0.0766666681 -0.0199444648 0
0.0733333305 -0.0199444648 0
0.0700000003 -0.0199444648 0
0.0666666701 -0.0199444648 0
0.0633333325 -0.0199444648 0
0.0599999987 -0.0199444648 0
0.0566666685 -0.0199444648 0
0.0533333346 -0.0199444648 0
0.0500000007 -0.0199444648 0
0.0466666669 -0.0199444648 0
0.043333333 -0.0199444648 0
0.141666666 -0.0228312165 0
0.138333336 -0.0228312165 0
0.135000005 -0.0228312165 0
0.13166666 -0.0228312165 0
0.12833333 -0.0228312165 0
0.125 -0.0228312165 0
0.12166667 -0.0228312165 0
0.118333332 -0.0228312165 0
0.115000002 -0.0228312165 0
0.111666664 -0.0228312165 0
0.108333334 -0.0228312165 0
0.104999997 -0.0228312165 0
0.101666667 -0.0228312165 0
0.0983333364 -0.0228312165 0
0.0949999988 -0.0228312165 0
0.0916666687 -0.0228312165 0
0.088333331 -0.0228312165 0
0.0850000009 -0.0228312165 0
0.0816666633 -0.0228312165 0
0.0783333331 -0.0228312165 0
0.075000003 -0.0228312165 0
0.0716666654 -0.0228312165 0
0.0683333352 -0.0228312165 0
0.0649999976 -0.0228312165 0
0.0616666675 -0.0228312165 0
0.0583333336 -0.0228312165 0
0.0549999997 -0.0228312165 0
0.0516666658 -0.0228312165 0
0.0483333319 -0.0228312165 0
0.0450000018 -0.0228312165 0
0.0416666679 -0.0228312165 0
0.140000001 -0.0257179681 0
0.13666667 -0.0257179681 0
0.13333334 -0.0257179681 0
0.129999995 -0.0257179681 0
0.126666665 -0.0257179681 0
0.123333335 -0.0257179681 0
0.119999997 -0.0257179681 0
0.116666667 -0.0257179681 0
0.113333337 -0.0257179681 0
0.109999999 -0.0257179681 0
0.106666669 -0.0257179681 0
0.103333332 -0.0257179681 0
0.100000001 -0.0257179681 0
0.0966666639 -0.0257179681 0
0.0933333337 -0.0257179681 0
0.0900000036 -0.0257179681 0
0.086666666 -0.0257179681 0
0.0833333358 -0.0257179681 0
0.0799999982 -0.0257179681 0
0.0766666681 -0.0257179681 0
0.0733333305 -0.0257179681 0
0.0700000003 -0.0257179681 0
0.0666666701 -0.0257179681 0
0.0633333325 -0.0257179681 0
0.0599999987 -0.0257179681 0
0.0566666685 -0.0257179681 0
0.0533333346 -0.0257179681 0
0.0500000007 -0.0257179681 0
0.0466666669 -0.0257179681 0
0.043333333 -0.0257179681 0
0.0399999991 -0.0257179681 0
0.138333336 -0.0286047198 0
0.135000005 -0.0286047198 0
0.13166666 -0.0286047198 0
0.12833333 -0.0286047198 0
0.125 -0.0286047198 0
0.12166667 -0.0286047198 0
0.118333332 -0.0286047198 0
0.115000002 -0.0286047198 0
0.111666664 -0.0286047198 0
0.108333334 -0.0286047198 0
0.104999997 -0.0286047198 0
0.101666667 -0.0286047198 0
0.0983333364 -0.0286047198 0
0.0949999988 -0.0286047198 0
0.0916666687 -0.0286047198 0
0.088333331 -0.0286047198 0
0.0850000009 -0.0286047198 0
0.0816666633 -0.0286047198 0
0.0783333331 -0.0286047198 0
0.075000003 -0.0286047198 0
0.0716666654 -0.0286047198 0
0.0683333352 -0.0286047198 0
0.0649999976 -0.0286047198 0
0.0616666675 -0.0286047198 0
0.0583333336 -0.0286047198 0
0.0549999997 -0.0286047198 0
0.0516666658 -0.0286047198 0
0.0483333319 -0.0286047198 0
0.0450000018 -0.0286047198 0
0.0416666679 -0.0286047198 0
0.038333334 -0.0286047198 0
0.13666667 -0.0314914696 0
0.13333334 -0.0314914696 0
0.129999995 -0.0314914696 0
0.126666665 -0.0314914696 0
0.123333335 -0.0314914696 0
0.119999997 -0.0314914696 0
0.116666667 -0.0314914696 0
0.113333337 -0.0314914696 0
0.109999999 -0.0314914696 0
0.106666669 -0.0314914696 0
0.103333332 -0.0314914696 0
0.100000001 -0.0314914696 0
0.0966666639 -0.0314914696 0
0.0933333337 -0.0314914696 0
0.0900000036 -0.0314914696 0
0.086666666 -0.0314914696 0
0.0833333358 -0.0314914696 0
0.0799999982 -0.0314914696 0
0.0766666681 -0.0314914696 0
0.0733333305 -0.0314914696 0
0.0700000003 -0.0314914696 0
0.0666666701 -0.0314914696 0
0.0633333325 -0.0314914696 0
0.0599999987 -0.0314914696 0
0.0566666685 -0.0314914696 0
0.0533333346 -0.0314914696 0
0.0500000007 -0.0314914696 0
0.0466666669 -0.0314914696 0
0.043333333 -0.0314914696 0
0.0399999991 -0.0314914696 0
0.0366666652 -0.0314914696 0
0.135000005 -0.0343782231 0
0.13166666 -0.0343782231 0
0.12833333 -0.0343782231 0
0.125 -0.0343782231 0
0.12166667 -0.0343782231 0
0.118333332 -0.0343782231 0
0.115000002 -0.0343782231 0
0.111666664 -0.0343782231 0
0.108333334 -0.0343782231 0
0.104999997 -0.0343782231 0
0.101666667 -0.0343782231 0
0.0983333364 -0.0343782231 0
0.0949999988 -0.0343782231 0
0.0916666687 -0.0343782231 0
0.088333331 -0.0343782231 0
0.0850000009 -0.0343782231 0
0.0816666633 -0.0343782231 0
0.0783333331 -0.0343782231 0
0.075000003 -0.0343782231 0
0.0716666654 -0.0343782231 0
0.0683333352 -0.0343782231 0
0.0649999976 -0.0343782231 0
0.0616666675 -0.0343782231 0
0.0583333336 -0.0343782231 0
0.0549999997 -0.0343782231 0
0.0516666658 -0.0343782231 0
0.0483333319 -0.0343782231 0
0.0450000018 -0.0343782231 0
0.0416666679 -0.0343782231 0
0.038333334 -0.0343782231 0
0.0350000001 -0.0343782231 0
0.13333334 -0.0372649729 0
0.129999995 -0.0372649729 0
0.126666665 -0.0372649729 0
0.123333335 -0.0372649729 0
0.119999997 -0.0372649729 0
0.116666667 -0.0372649729 0
0.113333337 -0.0372649729 0
0.109999999 -0.0372649729 0
0.106666669 -0.0372649729 0
0.103333332 -0.0372649729 0
0.100000001 -0.0372649729 0
0.0966666639 -0.0372649729 0
0.0933333337 -0.0372649729 0
0.0900000036 -0.0372649729 0
0.086666666 -0.0372649729 0
0.0833333358 -0.0372649729 0
0.0799999982 -0.0372649729 0
0.0766666681 -0.0372649729 0
0.0733333305 -0.0372649729 0
0.0700000003 -0.0372649729 0
0.0666666701 -0.0372649729 0
0.0633333325 -0.0372649729 0
0.0599999987 -0.0372649729 0
0.0566666685 -0.0372649729 0
0.0533333346 -0.0372649729 0
0.0500000007 -0.0372649729 0
0.0466666669 -0.0372649729 0
0.043333333 -0.0372649729 0
0.0399999991 -0.0372649729 0
0.0366666652 -0.0372649729 0
0.0333333351 -0.0372649729 0
0.13166666 -0.0401517227 0
0.12833333 -0.0401517227 0
0.125 -0.0401517227 0
0.12166667 -0.0401517227 0
0.118333332 -0.0401517227 0
0.115000002 -0.0401517227 0
0.111666664 -0.0401517227 0
[...]
POINT_DATA 961
SCALARS Temp float 1
LOOKUP_TABLE default
311.3847275820865
261.64430575737157
225.85153552709605
203.22002513780905
190.24856883193098
183.4483988818126
180.1559527023932
178.66906549414537
178.0368472687874
177.78163273850427
177.683119624488
177.6465441328996
177.6334154084471
177.6288408172673
177.6272895303842
177.62677321234128
177.62660760600397
177.6265589467384
177.6265699325141
177.62667944762666
177.62716365111103
177.62913808206332
177.6367702021987
177.66464125693818
177.75972106846874
178.05933243381278
178.92025605555742
181.14672296647007
186.26844783983074
196.66691351537085
215.6478268922129
261.6443361144642
215.90814753367704
185.48001295000412
167.01610030625852
156.8039755174253
151.613063177244
149.1651019363441
148.08381105363316
147.6324931219929
147.45311213000048
147.38477393966454
147.35968162759738
147.35076150310877
147.34767961432178
147.34663989839558
147.34629987921008
147.34619275490996
147.34617110085455
147.3462176980002
147.34646279976715
147.3474863949962
147.3515181306846
147.36656790726187
147.419287764812
147.59090904488363
148.1040073551903
149.49546676590256
152.87741181975048
160.16987439689774
174.0390602312756
196.66693863692117
225.85147078543966
185.47998802999038
159.0853939534101
143.3192800956875
134.6851119461137
130.32090803432703
128.26782107428477
127.3611262816954
126.98220759341066
126.83128901364529
126.77365278645205
126.7524347714614
126.74487234679643
126.74225333385178
126.74136931405198
126.74107810408977
126.7409888834781
126.7409874151172
126.7410963124927
126.74158605170923
126.74355060218672
126.75100471601377
126.77766834148336
126.86678799785712
127.14223178338128
127.92071812802742
129.9103909487772
134.46164326821702
143.69828605206627
160.16986698965965
186.2684660471301
203.2199455109422
167.01606338917347
143.31927663208734
129.11284298022696
121.29074961551066
117.311836789299
115.42760901576439
114.5901844279152
114.23816841725613
114.0972359824347
114.04316620417916
114.02318316957879
114.01603679567347
114.01355372423279
114.01271472756795
114.01243951020456
114.01236188557807
114.0123857753433
114.01259871736615
114.01348978505933
114.01692084844727
114.02940056591176
114.07200017774758
114.20731775577565
114.6034560923709
115.66186584792341
118.21907471196718
123.76079067304369
134.4616536084643
152.87742131245233
181.14669665603938
190.24849100537548
156.80393880337795
134.68509879548324
121.29077507077513
113.84982163767464
110.03610194500996
108.21880430877742
107.40702031964332
107.06438701183455
106.92675963368484
106.87381816733418
106.8542101244902
106.84718569801234
106.84474245220433
106.84391503236617
106.84364550721358
106.84357948601038
106.84364569716062
106.84402008141353
106.84550279762144
106.8509702117776
106.86995284803977
106.93162490150097
107.11760477146346
107.63396324228479
108.94377080950098
111.95851840146419
118.21906970719544
129.9103857235803
149.49545480734798
178.92023807731294
183.44832223266522
151.61305125195267
130.32091862791435
117.31181496916204
110.0360953049638
106.28841404948116
104.49603123936767
103.69321293884968
103.35368542339995
103.21709934868362
103.16449900683477
103.14500017918046
103.13800983038358
103.1355774958318
103.13475456159998
103.13449048533748
103.13444002865151
103.13456795604479
103.13516842992928
103.13743012477447
103.14539851396903
103.17177287468127
103.25332109084937
103.48732142807253
104.1066580874694
105.61041005756023
108.94376956624366
115.66186537373497
127.92071998068181
148.103982013474
178.05932032574208
180.15590405188885
149.1650933455827
128.2678439014537
115.42758731132464
108.2187992929821
104.49603110230971
102.71245978781187
101.9126391846161
101.57409721383833
101.43782733730757
101.38532643861093
101.36585834556121
101.35887773821821
101.35644817965641
101.3556274263092
101.35536942403647
101.35534169791009
101.35555211442443
101.35643679183734
101.35961264124072
101.37029480283138
101.40403226968351
101.50362040573295
101.7770972709417
102.47286281607701
104.10665680532931
107.63395947342683
114.60344933960873
127.14222625869174
147.59090564851846
177.759734459994
178.66904768010502
148.0838219004528
127.36109224760054
114.59017250418371
107.40702139886056
103.69321711916368
101.91263909345325
101.11378427105932
100.77554441073973
100.63936810017152
100.58689529894613
100.56743563787037
100.56045762316184
100.55802940029109
100.55721106681463
100.55696085704936
100.55696203385284
100.55727182032447
100.55847596081597
100.56260332155428
100.57588317779701
100.61605340471907
100.72994713676226
101.0317451359052
101.7770967999932
103.48732077670263
107.11760452473504
114.20731744382552
126.8667782611352
147.41927423545644
177.66464529930843
178.0368369157865
147.63254449471646
126.9821884982287
114.23816509090734
107.06439108129152
103.3536840409877
101.57409727958476
100.77554537197008
100.43739622074425
100.30124683388915
100.2487818223304
100.22932453590838
100.222347251499
100.21991991073985
100.21910430170472
100.21886390635296
100.21889857109942
100.2193158788859
100.22084060987916
100.22584652894227
100.24131986580863
100.28643147546492
100.41028804138504
100.72994741003
101.50362015980029
103.25332033635708
106.93162434570343
114.07199788847781
126.77767370632645
147.36657961422762
177.63679662506354
177.7817421244282
147.4531061365695
126.83129383053341
114.09724194121665
106.92676863377118
103.21709960630089
101.43782861283202
100.63936803555511
100.30124674311999
100.16510470448698
100.11264198053917
100.09318533454353
100.08620846613002
100.08378209206056
100.08296966174089
100.08274019909948
100.08280985713917
100.0833314236148
100.08514268523683
100.09086833533146
100.1079797880317
100.15644413735559
100.28643131625525
100.61605325438555
101.40403229234856
103.1717728823573
106.86995341908478
114.029391664983
126.75099613486668
147.3515085568576
177.6291418026522
177.68331467387418
147.38477015404513
126.77365767819548
114.0431727175027
106.87381505460259
103.16449945343535
101.3853281099171
100.58689520643098
100.2487819509978
100.11264197063306
100.06017988570744
100.04072346042734
100.03374696695467
100.0313216455066
100.03051271249261
100.03029432683162
100.03039689829504
100.03100900699378
100.03304864128079
100.03929836029215
100.05749584263414
100.107979853735
100.24131991345665
100.57588301054867
101.37029449063078
103.14539817560554
106.85096894194635
114.01692132050324
126.74355611749156
147.34749652014133
177.6271476903973
177.64653033063678
147.35966339441555
126.75243440873851
114.02319017470211
106.85420565730021
103.14500075646062
101.36585731950399
100.5674356717354
100.22932421703597
100.0931853307922
100.04072349502927
100.02126727129496
100.01429120788521
100.01186704355318
100.01106160135602
100.01085338830225
100.01098381597141
100.01166633039392
100.01386854591551
100.02045866064216
100.03929840435289
100.09086837919678
100.22584647129047
100.56260363775148
101.35961336151937
103.13743238515734
106.84550114134865
114.0134869186873
126.7415867588504
147.3464599478484
177.62667013889498
177.6333655371001
147.35074473697932
126.7448778016165
114.01602618715674
106.84718482138227
103.13801325062522
101.3588772406524
100.5604581520476
100.22234706916272
100.0862085172796
100.0337469437499
100.01429119623047
100.0073157746
100.00489293055253
100.00409077173062
100.00389108633082
100.0040427858343
100.00477446057486
100.0070803749694
100.01386852508152
100.03304863248644
100.08514274987039
100.22084039273159
100.55847589964694
101.35643659901731
103.13516778880808
106.84401943004856
114.01259740797965
126.74109933250155
147.34619218671727
177.62658328983719
177.62877447412902
147.34765451666763
126.74226027997744
114.0135431296667
106.84474243007556
103.13557505573267
101.35644806603892
100.55802895541194
100.21991980120148
100.0837821779658
100.0313216108162
100.01186703896123
100.00489292872452
100.00247187004709
100.0016728528417
100.00147987283333
100.00164636239921
100.00240900677363
100.00477445815731
100.01166633557547
100.03100899910368
100.08333146764771
100.21931587295964
100.55727216077518
101.35555294961038
103.13456695539234
106.84364365607885
114.01238211141766
126.7409860894303
147.34617523945266
177.62656221950047
177.62723710849676
147.34663437398262
126.74135242061271
114.01271274729336
106.8439212497371
103.13475366558659
101.35562870297656
100.55721085820042
100.21910426757773
100.08296963756352
100.03051270598408
100.01106160802246
100.00409077002344
100.0016728539258
100.0008774013713
100.00068977463886
100.00086590990456
100.00164636122962
100.00404278184344
100.01098380853011
100.03039690251674
100.08280983402946
100.21889838241981
100.55696193229507
101.35534128536496
103.13443959142455
106.84357870414168
114.01236063679757
126.74097679564733
147.3461859775579
177.62658000455858
177.6267320002432
147.34631309664465
126.74106805299137
114.01244082415182
106.84364099541334
103.1344899668474
101.35536826317913
100.55696081083649
100.21886399180573
100.08274016478592
100.03029432878733
100.01085337173782
100.0038910864308
100.00147987110202
100.00068977459054
100.0005072332035
100.00068977497122
100.00147987164954
100.00389109103747
100.010853379413
100.03029431802892
100.08274024720244
100.2188638979164
100.5569611972293
101.35536888936318
103.1344893613796
106.84364432237865
114.01243592787903
126.74108006238434
147.34628470278267
177.62676493421952
177.6266393220424
147.34618278176632
126.74099609323613
114.0123727882412
106.84357729916012
103.13444225681148
101.35534120566108
100.55696225812318
100.21889836693816
100.08280989732962
100.03039693751639
100.01098380666129
100.00404279074097
100.00164636164921
100.00086591025526
100.0006897752629
100.00087740197367
100.0016728516854
100.00409077160742
100.01106159582136
100.03051268167134
100.08296963727781
100.21910411358257
100.55721083998212
101.35562735066114
103.1347543117323
106.8439149710351
114.01270384190381
126.74136521528159
147.34662471812123
177.62728557800824
177.62664203844076
147.34616107786175
126.74099412885069
114.01237476844483
106.84364420342311
103.13456522947405
101.35555193955197
100.55727234824704
100.21931566064757
100.08333149711665
100.03100897957783
100.01166632344771
100.0047744567044
100.00240900569865
100.00164636302847
100.0014798732586
100.00167285304914
100.0024718716531
100.00489293137073
100.01186703418159
100.03132163934804
100.08378213167038
100.2199199412837
100.55802918789526
101.35644777435583
103.13557681297988
106.8447405726077
114.01355333389412
126.74224768255124
147.34767717462793
177.62886417504743
177.62653424528574
147.34620060137073
126.74110540563346
114.01258674636084
106.84402059764629
103.13516573392023
101.35643655581714
100.55847553961469
100.22084043264228
100.0851427953012
100.03304860947492
100.01386854253187
100.00708037318533
100.00477445928995
100.00404278535389
100.0038910859685
100.0040907711861
100.00489293236525
100.0073157721284
100.01429119368196
100.03374696019416
100.0862085024285
100.22234718426498
100.56045787176154
101.35887832354967
103.13801183559482
106.84718359125091
114.01603898126831
126.74487510008585
147.35076941162882
177.63343274332493
177.62663760024594
147.34646156015825
126.74156893011394
114.01348628457058
106.8454971601139
103.1374301926975
101.35961383888429
100.56260317493889
100.22584656630005
100.09086833669888
100.03929837467784
100.02045865652148
100.01386854201698
100.0116663319044
100.01098381843306
100.01085338842348
100.01106160176236
100.01186704475376
100.01429120537931
100.02126728107594
100.04072347527652
100.09318538287036
100.22932430294667
100.56743553352035
101.36585806152199
103.1449995276474
106.85420988619843
114.02317699852362
126.75243164205808
147.35967699806693
177.64655235559687
177.6271363659864
147.34749531596026
126.74353559054573
114.01692291814615
106.85096499419298
103.14539832964572
101.37029378946679
100.57588316680403
100.24132004603216
100.10797979923973
100.05749589055448
100.0392983601445
100.03304863715972
100.03100900327625
100.03039689487834
100.0302943274844
100.0305127180907
100.03132164345517
100.03374696806567
100.04072346648036
100.06017987666209
100.11264201195547
100.24878181722431
100.58689562718133
101.38532721767294
103.16449804933542
106.87381910222328
114.04316337594518
126.77365362490772
147.38477460885736
177.6831216784177
177.6291259839925
147.35147991035
126.75099610387535
114.02938516803785
106.86994979403978
103.17177426467327
101.40403139751828
100.61605352160018
100.2864312278587
100.15644406685009
100.1079797732205
100.09086831734339
100.08514268608465
100.08333144066088
100.08280985905257
100.08274019995582
100.08296966522371
100.0837820888551
100.08620847044956
100.09318532603436
100.11264200105082
100.16510472174801
100.30124665727111
100.63936825497743
101.43782769705558
103.21710077288883
106.92675887884721
114.09723497703905
126.83129453608557
147.45311561665105
177.7816150418678
177.6368328739283
147.36656965295958
126.77768972579901
114.07199880566803
106.93162905727985
103.2533209162294
101.5036215415845
100.7299482906119
100.41028829178106
100.28643190929625
100.24132017752687
100.22584679390512
100.22084086653564
100.21931613703654
100.21889885837459
100.21886422046379
100.21910457512725
100.21992020443476
100.22234753367897
100.22932478891637
100.24878208859002
100.30124698155011
100.43739649478793
100.77554480703384
101.57409592569337
103.35368414317804
107.06438259013859
114.23815882609144
126.98219562706963
147.63245563937252
178.03680715593126
177.66463844054303
147.4192966679932
126.86678233289068
114.20731931200125
107.11761145705313
103.48732108835561
101.77709866011746
101.03174588722608
100.72994775437078
100.61605405519597
100.57588377447794
100.56260399026452
100.55847674421899
100.55727253053028
100.5569627379714
100.55696156654844
100.55721174869872
100.5580300942116
100.56045829493894
100.5674363242802
100.58689590041381
100.63936865605122
100.77554502274901
101.11378415679322
101.91263961066001
103.69321177162134
107.40701775881757
114.59017787660046
127.36112048230692
148.08380184825316
178.66907555209303
177.75971226325737
147.59093200791844
127.14222707277042
114.60345603460746
107.63395904717673
104.10665896167404
102.47286455671873
101.77709785282958
101.50362147146636
101.40403316783328
101.37029549198205
101.35961331006222
101.3564374843468
101.35555297589951
101.35534267942232
101.35537020505495
101.35562830545997
101.3564489819356
101.35887841997358
101.36585904422886
101.3853270652276
101.43782806653246
101.5740976485529
101.91263967280125
102.71246134939733
104.49602986919274
108.21880332444991
115.42760878756847
128.2678189494487
149.165106307489
180.15597820413313
178.05935744326788
148.1039807445265
127.92071284550808
115.66187024883041
108.94376585763162
105.6104111915487
104.1066580050118
103.48732120978511
103.253320817698
103.17177237165119
103.14539836722652
103.1374305801806
103.13516867097329
103.1345681596823
103.13444018779242
103.13449056180048
103.13475464663806
103.13557745442874
103.13800975434135
103.14499975743071
103.16449878020873
103.21709941614466
103.35368532292169
103.69321357300673
104.49603002410666
106.28841580344073
110.03610648098864
117.31184525759119
130.32092059292594
151.61307625030776
183.44840269241578
178.9202694538165
149.4954338093402
129.91038015105693
118.21905824891583
111.95851537475826
108.94376890199788
107.63395933026031
107.11760165829666
106.93162155120628
106.86994883248282
106.85096635188654
106.84549922073475
106.84401722844693
106.84364311217541
106.84357616392587
106.84364257017238
106.84391171956041
106.84473849358623
106.84718153145873
106.85420591559459
106.87381439224902
106.9267561176458
107.06438458676149
107.40701837787415
108.2188014127783
110.0361037640352
113.84983475999617
121.29076018319238
134.68510116346494
156.8039645243376
190.24853791318046
181.14669039419115
152.87741858237888
134.46167371210706
123.76079912520078
118.21909132904007
115.66187968301637
114.6034681781192
114.20732849658839
114.07200976471961
114.02941161815514
114.0169345159121
114.013503487697
114.01261189027389
114.01239830935269
114.01237455737974
114.01245221433493
114.01272655247884
114.01356466434189
114.01604644284244
114.02319391795046
114.04317860387249
114.09724899528796
114.23818173916979
114.5901965804951
115.42762273442034
117.3118551390626
121.29077415965484
129.11284092315228
143.3192725564854
167.01606733110125
203.21998914917572
186.26843983240337
160.1698797866929
143.69829304349648
134.46166537183066
129.91041392905169
127.9207343376007
127.1422470541792
126.8668015394346
126.7776802296207
126.75101903253906
126.74356825509943
126.74160498018098
126.74111364092505
126.74100353597959
126.74100718458578
126.74109488675795
126.74138245942287
126.74226420457923
126.74488344057045
126.75244913898261
126.77367024634808
126.83130892703942
126.98222559793247
127.36114222422833
128.26784015705235
130.32093028663542
134.68511178375695
143.31928011416957
159.08539321533297
185.48000151085444
225.85155248262845
196.66691134458995
174.03906382594508
160.1698812699214
152.8774356444898
149.4954797433933
148.10401460521342
147.5909108658147
147.4192834466429
147.3665669779984
147.35153369920997
147.34750520327697
147.34647130709848
147.3462231029937
147.34618301947356
147.34620608595077
147.34630631568842
147.34664002070056
147.34767384162456
147.35076210151732
147.3596930531806
147.38478984897176
147.4531236216152
147.63250075915093
148.08382248133387
149.1651175204198
151.61308088845513
156.80396928336197
167.01608670648994
185.48000082968235
215.9081562982377
261.6443151426251
215.6477833662451
196.66690609474875
186.26849184490297
181.14673746941773
178.92025659433847
178.05932975790967
177.75971137057502
177.66460077078452
177.63676982569854
177.62917524020273
177.62716931763597
177.62666358757045
177.6265715310091
177.62658038201647
177.6266105160042
177.62676738341364
177.62726025180723
177.62881386377325
177.63341359835755
177.64656604756308
177.6831346573311
177.78162723984227
178.0368484752458
178.6690708041496
180.15596470129373
183.4483896254954
190.24854846015575
203.22000194959128
225.85152113728782
261.6442852772686
311.38437191197164
