# vtk DataFile Version 2.0
Unstructured Grid Example
ASCII
DATASET UNSTRUCTURED_GRID

POINTS 961 float
0.150000006 -0.00839745998 0
0.146666661 -0.00839745998 0
0.143333331 -0.00839745998 0
0.140000001 -0.00839745998 0
0.13666667 -0.00839745998 0
0.13333334 -0.00839745998 0
0.129999995 -0.00839745998 0
0.126666665 -0.00839745998 0
0.123333335 -0.00839745998 0
0.119999997 -0.00839745998 0
0.116666667 -0.00839745998 0
0.113333337 -0.00839745998 0
0.109999999 -0.00839745998 0
0.106666669 -0.00839745998 0
0.103333332 -0.00839745998 0
0.100000001 -0.00839745998 0
0.0966666639 -0.00839745998 0
0.0933333337 -0.00839745998 0
0.0900000036 -0.00839745998 0
0.086666666 -0.00839745998 0
0.0833333358 -0.00839745998 0
0.0799999982 -0.00839745998 0
0.0766666681 -0.00839745998 0
0.0733333305 -0.00839745998 0
0.0700000003 -0.00839745998 0
0.0666666701 -0.00839745998 0
0.0633333325 -0.00839745998 0
0.0599999987 -0.00839745998 0
0.0566666685 -0.00839745998 0
0.0533333346 -0.00839745998 0
0.0500000007 -0.00839745998 0
0.148333326 -0.0112842107 0
0.144999996 -0.0112842107 0
0.141666666 -0.0112842107 0
0.138333336 -0.0112842107 0
0.135000005 -0.0112842107 0
0.13166666 -0.0112842107 0
0.12833333 -0.0112842107 0
0.125 -0.0112842107 0
0.12166667 -0.0112842107 0
0.118333332 -0.0112842107 0
0.115000002 -0.0112842107 0
0.111666664 -0.0112842107 0
0.108333334 -0.0112842107 0
0.104999997 -0.0112842107 0
0.101666667 -0.0112842107 0
0.0983333364 -0.0112842107 0
0.0949999988 -0.0112842107 0
0.0916666687 -0.0112842107 0
0.088333331 -0.0112842107 0
0.0850000009 -0.0112842107 0
0.0816666633 -0.0112842107 0
0.0783333331 -0.0112842107 0
0.075000003 -0.0112842107 0
0.0716666654 -0.0112842107 0
0.0683333352 -0.0112842107 0
0.0649999976 -0.0112842107 0
0.0616666675 -0.0112842107 0
0.0583333336 -0.0112842107 0
0.0549999997 -0.0112842107 0
0.0516666658 -0.0112842107 0
0.0483333319 -0.0112842107 0
0.146666661 -0.0141709624 0
0.143333331 -0.0141709624 0
0.140000001 -0.0141709624 0
0.13666667 -0.0141709624 0
0.13333334 -0.0141709624 0
0.129999995 -0.0141709624 0
0.126666665 -0.0141709624 0
0.123333335 -0.0141709624 0
0.119999997 -0.0141709624 0
0.116666667 -0.0141709624 0
0.113333337 -0.0141709624 0
0.109999999 -0.0141709624 0
0.106666669 -0.0141709624 0
0.103333332 -0.0141709624 0
0.100000001 -0.0141709624 0
0.0966666639 -0.0141709624 0
0.0933333337 -0.0141709624 0
0.0900000036 -0.0141709624 0
0.086666666 -0.0141709624 0
0.0833333358 -0.0141709624 0
0.0799999982 -0.0141709624 0
0.0766666681 -0.0141709624 0
0.0733333305 -0.0141709624 0
0.0700000003 -0.0141709624 0
0.0666666701 -0.0141709624 0
0.0633333325 -0.0141709624 0
0.0599999987 -0.0141709624 0
0.0566666685 -0.0141709624 0
0.0533333346 -0.0141709624 0
0.0500000007 -0.0141709624 0
0.0466666669 -0.0141709624 0
0.144999996 -0.0170577131 0
0.141666666 -0.0170577131 0
0.138333336 -0.0170577131 0
0.135000005 -0.0170577131 0
0.13166666 -0.0170577131 0
0.12833333 -0.0170577131 0
0.125 -0.0170577131 0
0.12166667 -0.0170577131 0
0.118333332 -0.0170577131 0
0.115000002 -0.0170577131 0
0.111666664 -0.0170577131 0
0.108333334 -0.0170577131 0
0.104999997 -0.0170577131 0
0.101666667 -0.0170577131 0
0.0983333364 -0.0170577131 0
0.0949999988 -0.0170577131 0
0.0916666687 -0.0170577131 0
0.088333331 -0.0170577131 0
0.0850000009 -0.0170577131 0
0.0816666633 -0.0170577131 0
0.0783333331 -0.0170577131 0
0.075000003 -0.0170577131 0
0.0716666654 -0.0170577131 0
0.0683333352 -0.0170577131 0
0.0649999976 -0.0170577131 0
0.0616666675 -0.0170577131 0
0.0583333336 -0.0170577131 0
0.0549999997 -0.0170577131 0
0.0516666658 -0.0170577131 0
0.0483333319 -0.0170577131 0
0.0450000018 -0.0170577131 0
0.143333331 -0.0199444648 0
0.140000001 -0.0199444648 0
0.13666667 -0.0199444648 0
0.13333334 -0.0199444648 0
0.129999995 -0.0199444648 0
0.126666665 -0.0199444648 0
0.123333335 -0.0199444648 0
0.119999997 -0.0199444648 0
0.116666667 -0.0199444648 0
0.113333337 -0.0199444648 0
0.109999999 -0.0199444648 0
0.106666669 -0.0199444648 0
0.103333332 -0.0199444648 0
0.100000001 -0.0199444648 0
0.0966666639 -0.0199444648 0
0.0933333337 -0.0199444648 0
0.0900000036 -0.0199444648 0
0.086666666 -0.0199444648 0
0.0833333358 -0.0199444648 0
0.0799999982 -0.0199444648 0
0.0766666681 -0.0199444648 0
0.0733333305 -0.0199444648 0
0.0700000003 -0.0199444648 0
0.0666666701 -0.0199444648 0
0.0633333325 -0.0199444648 0
0.0599999987 -0.0199444648 0
0.0566666685 -0.0199444648 0
0.0533333346 -0.0199444648 0
0.0500000007 -0.0199444648 0
0.0466666669 -0.0199444648 0
0.043333333 -0.0199444648 0
0.141666666 -0.0228312165 0
0.138333336 -0.0228312165 0
0.135000005 -0.0228312165 0
0.13166666 -0.0228312165 0
0.12833333 -0.0228312165 0
0.125 -0.0228312165 0
0.12166667 -0.0228312165 0
0.118333332 -0.0228312165 0
0.115000002 -0.0228312165 0
0.111666664 -0.0228312165 0
0.108333334 -0.0228312165 0
0.104999997 -0.0228312165 0
0.101666667 -0.0228312165 0
0.0983333364 -0.0228312165 0
0.0949999988 -0.0228312165 0
0.0916666687 -0.0228312165 0
0.088333331 -0.0228312165 0
0.0850000009 -0.0228312165 0
0.0816666633 -0.0228312165 0
0.0783333331 -0.0228312165 0
0.075000003 -0.0228312165 0
0.0716666654 -0.0228312165 0
0.0683333352 -0.0228312165 0
0.0649999976 -0.0228312165 0
0.0616666675 -0.0228312165 0
0.0583333336 -0.0228312165 0
0.0549999997 -0.0228312165 0
0.0516666658 -0.0228312165 0
0.0483333319 -0.0228312165 0
0.0450000018 -0.0228312165 0
0.0416666679 -0.0228312165 0
0.140000001 -0.0257179681 0
0.13666667 -0.0257179681 0
0.13333334 -0.0257179681 0
0.129999995 -0.0257179681 0
0.126666665 -0.0257179681 0
0.123333335 -0.0257179681 0
0.119999997 -0.0257179681 0
0.116666667 -0.0257179681 0
0.113333337 -0.0257179681 0
0.109999999 -0.0257179681 0
0.106666669 -0.0257179681 0
0.103333332 -0.0257179681 0
0.100000001 -0.0257179681 0
0.0966666639 -0.0257179681 0
0.0933333337 -0.0257179681 0
0.0900000036 -0.0257179681 0
0.086666666 -0.0257179681 0
0.0833333358 -0.0257179681 0
0.0799999982 -0.0257179681 0
0.0766666681 -0.0257179681 0
0.0733333305 -0.0257179681 0
0.0700000003 -0.0257179681 0
0.0666666701 -0.0257179681 0
0.0633333325 -0.0257179681 0
0.0599999987 -0.0257179681 0
0.0566666685 -0.0257179681 0
0.0533333346 -0.0257179681 0
0.0500000007 -0.0257179681 0
0.0466666669 -0.0257179681 0
0.043333333 -0.0257179681 0
0.0399999991 -0.0257179681 0
0.138333336 -0.0286047198 0
0.135000005 -0.0286047198 0
0.13166666 -0.0286047198 0
0.12833333 -0.0286047198 0
0.125 -0.0286047198 0
0.12166667 -0.0286047198 0
0.118333332 -0.0286047198 0
0.115000002 -0.0286047198 0
0.111666664 -0.0286047198 0
0.108333334 -0.0286047198 0
0.104999997 -0.0286047198 0
0.101666667 -0.0286047198 0
0.0983333364 -0.0286047198 0
0.0949999988 -0.0286047198 0
0.0916666687 -0.0286047198 0
0.088333331 -0.0286047198 0
0.0850000009 -0.0286047198 0
0.0816666633 -0.0286047198 0
0.0783333331 -0.0286047198 0
0.075000003 -0.0286047198 0
0.0716666654 -0.0286047198 0
0.0683333352 -0.0286047198 0
0.0649999976 -0.0286047198 0
0.0616666675 -0.0286047198 0
0.0583333336 -0.0286047198 0
0.0549999997 -0.0286047198 0
0.0516666658 -0.0286047198 0
0.0483333319 -0.0286047198 0
0.0450000018 -0.0286047198 0
0.0416666679 -0.0286047198 0
0.038333334 -0.0286047198 0
0.13666667 -0.0314914696 0
0.13333334 -0.0314914696 0
0.129999995 -0.0314914696 0
0.126666665 -0.0314914696 0
0.123333335 -0.0314914696 0
0.119999997 -0.0314914696 0
0.116666667 -0.0314914696 0
0.113333337 -0.0314914696 0
0.109999999 -0.0314914696 0
0.106666669 -0.0314914696 0
0.103333332 -0.0314914696 0
0.100000001 -0.0314914696 0
0.0966666639 -0.0314914696 0
0.0933333337 -0.0314914696 0
0.0900000036 -0.0314914696 0
0.086666666 -0.0314914696 0
0.0833333358 -0.0314914696 0
0.0799999982 -0.0314914696 0
0.0766666681 -0.0314914696 0
0.0733333305 -0.0314914696 0
0.0700000003 -0.0314914696 0
0.0666666701 -0.0314914696 0
0.0633333325 -0.0314914696 0
0.0599999987 -0.0314914696 0
0.0566666685 -0.0314914696 0
0.0533333346 -0.0314914696 0
0.0500000007 -0.0314914696 0
0.0466666669 -0.0314914696 0
0.043333333 -0.0314914696 0
0.0399999991 -0.0314914696 0
0.0366666652 -0.0314914696 0
0.135000005 -0.0343782231 0
0.13166666 -0.0343782231 0
0.12833333 -0.0343782231 0
0.125 -0.0343782231 0
0.12166667 -0.0343782231 0
0.118333332 -0.0343782231 0
0.115000002 -0.0343782231 0
0.111666664 -0.0343782231 0
0.108333334 -0.0343782231 0
0.104999997 -0.0343782231 0
0.101666667 -0.0343782231 0
0.0983333364 -0.0343782231 0
0.0949999988 -0.0343782231 0
0.0916666687 -0.0343782231 0
0.088333331 -0.0343782231 0
0.0850000009 -0.0343782231 0
0.0816666633 -0.0343782231 0
0.0783333331 -0.0343782231 0
0.075000003 -0.0343782231 0
0.0716666654 -0.0343782231 0
0.0683333352 -0.0343782231 0
0.0649999976 -0.0343782231 0
0.0616666675 -0.0343782231 0
0.0583333336 -0.0343782231 0
0.0549999997 -0.0343782231 0
0.0516666658 -0.0343782231 0
0.0483333319 -0.0343782231 0
0.0450000018 -0.0343782231 0
0.0416666679 -0.0343782231 0
0.038333334 -0.0343782231 0
0.0350000001 -0.0343782231 0
0.13333334 -0.0372649729 0
0.129999995 -0.0372649729 0
0.126666665 -0.0372649729 0
0.123333335 -0.0372649729 0
0.119999997 -0.0372649729 0
0.116666667 -0.0372649729 0
0.113333337 -0.0372649729 0
0.109999999 -0.0372649729 0
0.106666669 -0.0372649729 0
0.103333332 -0.0372649729 0
0.100000001 -0.0372649729 0
0.0966666639 -0.0372649729 0
0.0933333337 -0.0372649729 0
0.0900000036 -0.0372649729 0
0.086666666 -0.0372649729 0
0.0833333358 -0.0372649729 0
0.0799999982 -0.0372649729 0
0.0766666681 -0.0372649729 0
0.0733333305 -0.0372649729 0
0.0700000003 -0.0372649729 0
0.0666666701 -0.0372649729 0
0.0633333325 -0.0372649729 0
0.0599999987 -0.0372649729 0
0.0566666685 -0.0372649729 0
0.0533333346 -0.0372649729 0
0.0500000007 -0.0372649729 0
0.0466666669 -0.0372649729 0
0.043333333 -0.0372649729 0
0.0399999991 -0.0372649729 0
0.0366666652 -0.0372649729 0
0.0333333351 -0.0372649729 0
0.13166666 -0.0401517227 0
0.12833333 -0.0401517227 0
0.125 -0.0401517227 0
0.12166667 -0.0401517227 0
0.118333332 -0.0401517227 0
0.115000002 -0.0401517227 0
0.111666664 -0.0401517227 0
[...]
POINT_DATA 961
SCALARS Temp float 1
LOOKUP_TABLE default
325.2352443040224
275.3570448816099
238.35672332701841
213.8986487681211
199.098976036887
190.849523706072
186.58404946352044
184.52276866523636
183.58474459235538
183.17990805601582
183.0131421399269
182.947209533101
182.922068782455
182.91278557618787
182.9094559284139
182.90829017627797
182.9078961951486
182.9077786347162
182.90780703116377
182.9080807262488
182.9092008386889
182.91339496232686
182.9282217479911
182.97752578192058
183.1303275925421
183.56752753730512
184.71093189459933
187.41855580174933
193.17972707214932
204.1497051939208
223.21456146032747
275.3570746286617
229.07918361815416
197.09882319419867
176.73789454397613
164.81964054590034
158.36950032884565
155.11980643269024
153.58432357189346
152.89895515479733
152.608023193269
152.48987413695727
152.44373181950024
152.42632508332017
152.41995802028822
152.41769124709413
152.41690790956508
152.41664981484382
152.4165976458133
152.4167184211329
152.4173046253044
152.41956193174119
152.427716297491
152.4555091954969
152.54418409953087
152.80677050198932
153.5216747405978
155.29449482851973
159.26514582964248
167.2453652795611
181.59763557362768
204.14973066362657
238.35665590865526
197.09879613834212
169.0961578308918
151.56120363124538
141.41375681311013
135.96305534671464
133.2289565433231
131.93970711492383
131.3644262418405
131.12002368471923
131.02061958694287
130.98172331536236
130.96701918722565
130.96162950387662
130.9597084516508
130.95904339261563
130.95883269307274
130.95883129080454
130.9591003568674
130.96022275821701
130.96436767862426
130.97878325915693
131.02591136580563
131.1696429700167
131.5750832045747
132.62368153350565
135.08971954989448
140.3251002084446
150.30124232038713
167.24535775855628
193.17974579185133
213.89856432926555
176.7378536615212
151.56119895056412
135.78055378750364
126.61895820131542
121.67453823528665
119.18070251542922
117.99800334698702
117.46732214496012
117.24069522556495
117.1480833535403
117.11169279370725
117.0978848147908
117.09280630129004
117.09099289725312
117.09036772472481
117.0901858119228
117.09024975439642
117.09075622499714
117.09271908383364
117.09967715985609
117.122896594744
117.19549773347738
117.40667424354655
117.97366384079434
119.36826787902919
122.48923007730093
128.80709616093048
140.3251112905816
159.26515540350226
187.41852898087848
199.0988922221297
164.81959943823463
141.41374083855075
126.61898798047015
117.95962025405889
113.25162238195848
110.86166863423621
109.72199400550923
109.20826425201598
108.98803813402722
108.89775823240298
108.8621915796284
108.84866729482141
108.84368538969535
108.84190388884237
108.84129503873271
108.84114291653222
108.84130691857104
108.84216635172449
108.84531833711387
108.85603056350081
108.89024084191333
108.99241017234093
109.2758787976304
110.00177208492325
111.70711081924037
115.36349227152326
122.48922451574518
135.0897137733499
155.29448261045778
184.71091350757894
190.84944118777042
158.36948884756302
135.9630681206616
121.674514185947
113.25161492232763
108.64648057095523
106.29864270728474
105.17534612267195
104.66771704505805
104.44968077843583
104.36016454535694
104.32485714102665
104.31141876518623
104.30646568573013
104.30469615283741
104.30410115663904
104.30398847794268
104.30429332935283
104.30562877889398
104.31029196847189
104.32547017555683
104.3718421807773
104.5042377833684
104.85559018635152
105.71794855241869
107.66684134040082
111.70710925974622
119.36826728320641
132.62368339690244
153.52164850638567
183.5675154002651
186.58400053017306
155.11979830425113
133.2289816647998
119.18067902701813
110.86166300768382
106.29864253528844
103.96697077842595
102.84961165324385
102.34408011562424
102.12676277476653
102.0374868494034
102.00225806887406
101.98884552245005
101.98390098541745
101.9821377797506
101.98155852264601
101.98149979416844
101.98198641528899
101.98390113767844
101.9902867300781
102.01019754120847
102.06848675285606
102.22812347116508
102.63551645865249
103.60086466424383
105.71794692315407
110.00176760266196
117.97365614902328
131.57507759455046
152.80676706121938
183.13034093762755
184.5227515926222
153.58433645407956
131.9396717492177
117.99799054664507
109.72199568330271
105.17535144065086
102.84961151484242
101.73431715038791
101.22947955023801
101.01239090706117
100.9231880711399
100.88798249127555
100.87457749780646
100.86963673928875
100.86787987019657
100.86732019837498
100.8673280615249
100.86802722383453
100.87057625798903
100.87871738950996
100.90309419121311
100.97173918571289
101.1530910096214
101.60137603490053
102.63551582653757
104.85558930930574
109.27587859720987
117.40667398980735
131.16963251238235
152.5441703712717
182.97753005486908
183.5847368742124
152.89900978455225
131.36440746122165
117.46731902406505
109.20826922788382
104.66771526839462
102.34408015426764
101.22948093684144
100.72486676878323
100.5078486481543
100.41866753757813
100.3834688217367
100.37006621824655
100.36512799284971
100.36337822098014
100.36284212997967
100.36292505018496
100.36384875470235
100.36702229038137
100.37676440893446
100.40489705994109
100.48154360710198
100.67827527228096
101.15309139826434
102.2281231910295
104.50423691319905
108.99240949916523
117.1954952784067
131.02591712028956
152.45552139004863
182.92824866508573
183.18002179167357
152.60801891629745
131.12002949233494
117.2407021475952
108.9880486768206
104.44968110705116
102.12676447705246
101.01239077831067
100.5078485001825
100.29085125574514
100.20167676164577
100.16648008130964
100.15307872012507
100.1481430889761
100.1464013473714
100.14589090007654
100.14605055364439
100.14718829108304
100.15091399357183
100.16196366129225
100.19291874232422
100.27508484895274
100.48154336696673
100.97173899213976
102.06848677562932
104.37184218069659
108.89024149231953
117.122886658505
130.97877426980938
152.4277065640635
182.91339902495548
183.01334023803227
152.48987138249882
131.02062491660033
117.14809063220682
108.89775437013667
104.36016506535273
102.0374890473924
100.92318794720896
100.41866773450677
100.20167674534711
100.11250422252714
100.07730829570436
100.06390799204884
100.05897513785756
100.0572419724539
100.0567569954583
100.05698771661376
100.05830955385831
100.06247438236572
100.07448231850034
100.10733900627586
100.19291885650927
100.40489713295784
100.9030939506278
102.01019711727587
104.32546975900506
108.85602916612902
117.09967762488562
130.96437359810434
152.41957227332705
182.90918473414115
182.94719564822296
152.44371289320597
130.98172260763747
117.11170025359459
108.8621861986275
104.32485784351734
102.00225664140568
100.88798253753166
100.38346832982083
100.16648007360959
100.07730835767744
100.04211305654647
100.02871393379449
100.02378406754873
100.0220593241082
100.02159742847059
100.02188780887981
100.02335260610336
100.02783213127182
100.04047231341488
100.07448239608406
100.16196373411405
100.37676432397951
100.87871785691894
101.99028772465448
104.31029479370153
108.84531634964932
117.09271587960679
130.9602235348942
152.41730187993488
182.90807141458
182.92201748252745
152.42630683238787
130.9670245118753
117.09787256842291
108.8486661925399
104.31142298264041
101.98884487139732
100.87457824760988
100.37006594100544
100.1530788043342
100.0639079505807
100.0287139125256
100.0153165068558
100.01038999188827
100.00867309827413
100.00823044574183
100.0085663781017
100.01013169667321
100.0148150365584
100.02783209198898
100.06247436688999
100.15091410077572
100.36702195914357
100.87057616221702
101.98390085935691
104.30562798572073
108.84216557949131
117.09075479169158
130.9591036342358
152.4166924100139
182.90782042496804
182.9127172093774
152.41993130866123
130.96163633739576
117.0927942842511
108.84368537657332
104.30646252401604
101.98390083011768
100.8696360835752
100.36512782327992
100.14814323055295
100.05897507803516
100.02378405971153
100.01038998828636
100.00546790115295
100.00375849276664
100.00333102398916
100.00369890808788
100.0053285444279
100.01013169199658
100.02335261599247
100.0583095408841
100.1471883641869
100.36384874400454
100.86802771246354
101.98198753531972
104.30429206032022
108.84130451571751
117.0902456830202
130.9588300069564
152.41660165878523
182.90778153919666
182.90940206779084
152.41768496940878
130.95969017981142
117.09099063954265
108.84191112022512
104.30469502412964
101.98213946666729
100.86787958706714
100.36337817175453
100.14640130673125
100.05724196204692
100.02205933641366
100.00867309493572
100.00375849505139
100.00205749222276
100.00164226873929
100.00203137525203
100.00369890569887
100.00856637026577
100.02188779507631
100.05698772336804
100.14605051397905
100.36292475691732
100.8673279098131
101.98149925209417
104.30398793405556
108.84114200899486
117.09018443507549
130.95881956221774
152.4166426858513
182.90786808344325
182.90824839601217
152.41692114991184
130.95903263060146
117.09036913899972
108.84128949449803
104.30410053901353
101.98155693995474
100.86732013917833
100.36284226096603
100.1458908461648
100.05675699935735
100.0215973973515
100.00823044600985
100.00333102036149
100.00164226864756
100.00123871332431
100.00164226948213
100.00333102158571
100.00823045495717
100.02159741172639
100.05675698039713
100.14589097891995
100.36284211729614
100.86732068955848
101.98155780341219
104.30409976317411
108.8412935568954
117.09036372521753
130.95904525778312
152.41689225198175
182.90828156804173
182.9079283921663
152.41663941299922
130.95884015018012
117.09019785316752
108.84114036291007
104.30399126842993
101.98149915910653
100.86732839548692
100.36292473391363
100.14605062118848
100.05698778469218
100.0218877919056
100.00856638793779
100.0036989066299
100.00203137601771
100.00164227010663
100.00205749352178
100.00375849040701
100.00867309806425
100.02205931383301
100.05724191852042
100.14640130689675
100.3633779302058
100.86787955862715
101.98213766438316
104.30469582137025
108.84190376424046
117.090980660152
130.9597041628659
152.4176754958378
182.90945203680485
182.9078618236357
152.41658722535382
130.95883833840338
117.09023724538532
108.8413052066476
104.30428986911248
101.98198619893782
100.86802798339806
100.3638484229354
100.14718841209682
100.05830950604741
100.02335259367794
100.01013168886172
100.005328542167
100.00369890945835
100.00333102483954
100.00375849323638
100.00546790444999
100.01038999351803
100.02378405084299
100.05897512728144
100.14814315598937
100.36512803839098
100.86963643064476
101.98390043189168
104.30646480964677
108.84368324685975
117.09280572246163
130.96162356252208
152.41995558706404
182.91280931911797
182.9077704263063
152.41670059939406
130.9591097406864
117.09074291909927
108.84216694412868
104.30562542666566
101.98390083023402
100.87057563776068
100.36702202290418
100.15091417301488
100.06247432627951
100.02783212426185
100.01481503287339
100.01013169403237
100.00856637722106
100.00823044505553
100.00867309708437
100.01038999548238
100.01531650204866
100.02871390755844
100.06390798010878
100.15307877917719
100.37006611899184
100.87457785639523
101.98884632648436
104.31142126370813
108.84866478815536
117.0978873209926
130.96702217797244
152.42633343754028
182.92208675416217
182.90803806524423
152.41730315519695
130.96020439096492
117.09271534167824
108.84531164669829
104.31029207390917
101.99028835827544
100.87871719504105
100.37676446545186
100.16196366163398
100.07448234457523
100.04047230510054
100.02783212369285
100.02335260946562
100.02188781311214
100.02159742875355
100.0220593250932
100.02378406981944
100.02871392909272
100.04211307446776
100.07730832367562
100.16648015874512
100.38346846656853
100.88798233501745
102.00225767896613
104.32485635234487
108.86219126076377
117.11168596720738
130.98172014719046
152.44372745757377
182.94721817363734
182.90917321254562
152.4195709584124
130.96435204301108
117.09967945705597
108.85602454410788
104.32546998844008
102.01019614493349
100.90309417422337
100.4048973300909
100.1929187660626
100.10733908955298
100.07448231635304
100.06247437467883
100.05830954790751
100.0569877107096
100.05675699663291
100.05724198176638
100.05897513418445
100.0639079934603
100.07730830682168
100.11250420629197
100.20167681266898
100.41866753369312
100.92318855175542
102.0374878836458
104.36016333150192
108.89775941074257
117.14808028167602
131.0206206205747
152.4898750081792
183.01314411018848
182.9133834391668
152.42767741880576
130.97877456433318
117.1228794047171
108.89023723693256
104.37184387422809
102.0684855709249
100.97173936584024
100.48154322495519
100.27508473419326
100.19291871595769
100.16196363051489
100.15091399763311
100.14718831684196
100.14605055698688
100.14589090189602
100.14640135232078
100.14814308433583
100.15307872758386
100.16648006494307
100.20167679551457
100.29085128595646
100.50784836626282
101.01239111280674
102.12676327308823
104.44968257516739
108.98803724792721
117.24069420598559
131.12002952402707
152.60802685823947
183.17989017028088
182.92828530262253
152.45551161651844
131.02593422883405
117.19549637535557
108.99241515836809
104.50423764220407
102.22812509753416
101.15309267922378
100.6782756551616
100.48154428847428
100.4048975317464
100.37676481674134
100.36702268892152
100.36384915227877
100.36292549183123
100.36284260888914
100.36337864231928
100.365128442062
100.37006664912836
100.38346920613013
100.41866794151117
100.50784886499429
100.72486718879541
101.22948016524745
102.34407838450905
104.66771554073343
109.20825910794368
117.46731167944192
131.3644138353274
152.89891679900765
183.58470404463614
182.9775232092381
152.54419364913244
131.1696368634031
117.40667620222212
109.27588682874848
104.85558982488979
102.63551837703795
101.60137709341156
101.15309188720005
100.97174012041712
100.90309504916047
100.8787183609255
100.87057737069865
100.86802824343744
100.86732907314547
100.86732121351002
100.8678808534058
100.8696377312383
100.87457845314387
100.88798346729973
100.92318893173196
101.01239168499987
101.22948042714015
101.73431699988271
102.84961224265506
105.17534480550361
109.72199129029748
117.99799611486574
131.9397012204441
153.5843140785629
184.52277896847292
183.13031902412598
152.80679402693522
131.57507850845374
117.97366376465078
110.00176713701529
105.71794972024048
103.60086697432568
102.63551720808157
102.22812495090582
102.06848792044178
102.0101984676124
101.99028764075241
101.98390206840067
101.98198756731709
101.98150109334183
101.98155957906697
101.98213894912675
101.98390204577731
101.98884642702467
102.00225898976743
102.03748767678773
102.12676376131924
102.34408066099898
102.84961224112647
103.96697288882577
106.29864092429584
110.8616675931678
119.18070248685655
133.22895454876644
155.11981138707392
186.5840767107015
183.56755305264403
153.5216471706351
132.62367590461974
119.36827263677625
111.70710496750402
107.66684275394685
105.71794832110136
104.85558982509393
104.50423742664786
104.37184155465121
104.3254700153059
104.31029248016199
104.30562906948239
104.30429358432784
104.30398867376579
104.3041012671427
104.30469623301406
104.30646559656248
104.31141862868526
104.32485661375024
104.36016424729608
104.44968086179988
104.66771689848264
105.17534697776708
106.29864103435727
108.64648262631864
113.25162782124416
121.6745481288222
135.9630697305465
158.3695153806455
190.8495249189083
184.71094473544716
155.29446099462643
135.089707723265
122.4892115724117
115.36348874626745
111.70710851176541
110.0017672903906
109.27587521241016
108.99240608385867
108.89023609318453
108.85602602279097
108.84531410528031
108.84216295284179
108.84130381819297
108.84113903115987
108.84129151584703
108.84189989507799
108.84368066275357
108.84866231587853
108.86218659147873
108.89775377354482
108.98803396808079
109.2082613156636
109.72199193223878
110.86166528425348
113.25162470486428
117.95963557508834
126.61897098011747
141.41374327464274
164.81962683596765
199.09894150224505
187.41852306962812
159.26515321370573
140.32513275026045
128.80710549704156
122.48924866406982
119.36828307253691
117.97367723352347
117.40668629557756
117.19550855425673
117.12290902926304
117.09969228330743
117.09273437023543
117.09077101740291
117.09026387281835
117.09020005232145
117.09038186474884
117.0910060263385
117.09281844191247
117.09789563939583
117.11170480693107
117.14809717756327
117.24070976895032
117.46733714505325
117.99801676885635
119.1807178947483
121.67455911124382
126.61898694984092
135.78055173545107
151.56119614568928
176.7378607669014
213.8986120607269
193.17971942229912
167.24537074692776
150.3012493858095
140.32512362235857
135.08974397504298
132.62369858328813
131.57509965565305
131.16965711121014
131.02592396094715
130.97879846508852
130.96438640140605
130.96024285326385
130.9591188281344
130.9588485720013
130.95885199700407
130.9590610099992
130.95972226387656
130.96164090770452
130.96703089174363
130.98173849338792
131.02063807447502
131.1200446970873
131.3644455953441
131.93972417574236
133.22897710395065
135.96308023586053
141.4137547145006
151.5612029441099
169.0961575808933
197.09881117991725
238.35673962636744
204.14970286173167
181.5976386859462
167.2453716190394
159.265170184878
155.29450771045146
153.52168185130833
152.80677216809474
152.5441796047453
152.45550813727547
152.42773179662453
152.41958102000103
152.41731352037817
152.41672419517218
152.4166098193489
152.41666321530525
152.41691416784616
152.41769094880684
152.41995188648082
152.42632542681568
152.4437432763118
152.48989034646297
152.60803517074197
152.89896298782858
153.58433534985215
155.1198229762779
158.369520432075
164.81963238293721
176.73787886783555
197.09880967309041
229.07919130836623
275.35705237948866
223.2145172945804
204.14969701721748
193.17977131707764
187.41857063621455
184.71093229059878
183.5675249845876
183.13031733767892
182.97748472256114
182.92822107737504
182.91343234169156
182.90920669587842
182.90806501171707
182.90780875195918
182.90779999403387
182.9078988499782
182.90828384429096
182.90942608424336
182.9127580081522
182.92206668316075
182.9472314909749
183.01315725436055
183.17990286945937
183.58474590226632
184.52277439969535
186.58406305992466
190.84951151679272
199.0989530961191
213.8986235634112
238.3567071945666
275.35702226195764
325.23488460568814
