# vtk DataFile Version 2.0
Unstructured Grid Example
ASCII
DATASET UNSTRUCTURED_GRID

POINTS 961 float
0.150000006 -0.00839745998 0
0.146666661 -0.00839745998 0
0.143333331 -0.00839745998 0
0.140000001 -0.00839745998 0
0.13666667 -0.00839745998 0
0.13333334 -0.00839745998 0
0.129999995 -0.00839745998 0
0.126666665 -0.00839745998 0
0.123333335 -0.00839745998 0
0.119999997 -0.00839745998 0
0.116666667 -0.00839745998 0
0.113333337 -0.00839745998 0
0.109999999 -0.00839745998 0
0.106666669 -0.00839745998 0
0.103333332 -0.00839745998 0
0.100000001 -0.00839745998 0
0.0966666639 -0.00839745998 0
0.0933333337 -0.00839745998 0
0.0900000036 -0.00839745998 0
0.086666666 -0.00839745998 0
0.0833333358 -0.00839745998 0
0.0799999982 -0.00839745998 0
0.0766666681 -0.00839745998 0
0.0733333305 -0.00839745998 0
0.0700000003 -0.00839745998 0
0.0666666701 -0.00839745998 0
0.0633333325 -0.00839745998 0
0.0599999987 -0.00839745998 0
0.0566666685 -0.00839745998 0
0.0533333346 -0.00839745998 0
0.0500000007 -0.00839745998 0
0.148333326 -0.0112842107 0
0.144999996 -0.0112842107 0
0.141666666 -0.0112842107 0
0.138333336 -0.0112842107 0
0.135000005 -0.0112842107 0
0.13166666 -0.0112842107 0
0.12833333 -0.0112842107 0
0.125 -0.0112842107 0
0.12166667 -0.0112842107 0
0.118333332 -0.0112842107 0
0.115000002 -0.0112842107 0
0.111666664 -0.0112842107 0
0.108333334 -0.0112842107 0
0.104999997 -0.0112842107 0
0.101666667 -0.0112842107 0
0.0983333364 -0.0112842107 0
0.0949999988 -0.0112842107 0
0.0916666687 -0.0112842107 0
0.088333331 -0.0112842107 0
0.0850000009 -0.0112842107 0
0.0816666633 -0.0112842107 0
0.0783333331 -0.0112842107 0
0.075000003 -0.0112842107 0
0.0716666654 -0.0112842107 0
0.0683333352 -0.0112842107 0
0.0649999976 -0.0112842107 0
0.0616666675 -0.0112842107 0
0.0583333336 -0.0112842107 0
0.0549999997 -0.0112842107 0
0.0516666658 -0.0112842107 0
0.0483333319 -0.0112842107 0
0.146666661 -0.0141709624 0
0.143333331 -0.0141709624 0
0.140000001 -0.0141709624 0
0.13666667 -0.0141709624 0
0.13333334 -0.0141709624 0
0.129999995 -0.0141709624 0
0.126666665 -0.0141709624 0
0.123333335 -0.0141709624 0
0.119999997 -0.0141709624 0
0.116666667 -0.0141709624 0
0.113333337 -0.0141709624 0
0.109999999 -0.0141709624 0
0.106666669 -0.0141709624 0
0.103333332 -0.0141709624 0
0.100000001 -0.0141709624 0
0.0966666639 -0.0141709624 0
0.0933333337 -0.0141709624 0
0.0900000036 -0.0141709624 0
0.086666666 -0.0141709624 0
0.0833333358 -0.0141709624 0
0.0799999982 -0.0141709624 0
0.0766666681 -0.0141709624 0
0.0733333305 -0.0141709624 0
0.0700000003 -0.0141709624 0
0.0666666701 -0.0141709624 0
0.0633333325 -0.0141709624 0
0.0599999987 -0.0141709624 0
0.0566666685 -0.0141709624 0
0.0533333346 -0.0141709624 0
0.0500000007 -0.0141709624 0
0.0466666669 -0.0141709624 0
0.144999996 -0.0170577131 0
0.141666666 -0.0170577131 0
0.138333336 -0.0170577131 0
0.135000005 -0.0170577131 0
0.13166666 -0.0170577131 0
0.12833333 -0.0170577131 0
0.125 -0.0170577131 0
0.12166667 -0.0170577131 0
0.118333332 -0.0170577131 0
0.115000002 -0.0170577131 0
0.111666664 -0.0170577131 0
0.108333334 -0.0170577131 0
0.104999997 -0.0170577131 0
0.101666667 -0.0170577131 0
0.0983333364 -0.0170577131 0
0.0949999988 -0.0170577131 0
0.0916666687 -0.0170577131 0
0.088333331 -0.0170577131 0
0.0850000009 -0.0170577131 0
0.0816666633 -0.0170577131 0
0.0783333331 -0.0170577131 0
0.075000003 -0.0170577131 0
0.0716666654 -0.0170577131 0
0.0683333352 -0.0170577131 0
0.0649999976 -0.0170577131 0
0.0616666675 -0.0170577131 0
0.0583333336 -0.0170577131 0
0.0549999997 -0.0170577131 0
0.0516666658 -0.0170577131 0
0.0483333319 -0.0170577131 0
0.0450000018 -0.0170577131 0
0.143333331 -0.0199444648 0
0.140000001 -0.0199444648 0
0.13666667 -0.0199444648 0
0.13333334 -0.0199444648 0
0.129999995 -0.0199444648 0
0.126666665 -0.0199444648 0
0.123333335 -0.0199444648 0
0.119999997 -0.0199444648 0
0.116666667 -0.0199444648 0
0.113333337 -0.0199444648 0
0.109999999 -0.0199444648 0
0.106666669 -0.0199444648 0
0.103333332 -0.0199444648 0
0.100000001 -0.0199444648 0
0.0966666639 -0.0199444648 0
0.0933333337 -0.0199444648 0
0.0900000036 -0.0199444648 0
0.086666666 -0.0199444648 0
0.0833333358 -0.0199444648 0
0.0799999982 -0.0199444648 0
0.0766666681 -0.0199444648 0
0.0733333305 -0.0199444648 0
0.0700000003 -0.0199444648 0
0.0666666701 -0.0199444648 0
0.0633333325 -0.0199444648 0
0.0599999987 -0.0199444648 0
0.0566666685 -0.0199444648 0
0.0533333346 -0.0199444648 0
0.0500000007 -0.0199444648 0
0.0466666669 -0.0199444648 0
0.043333333 -0.0199444648 0
0.141666666 -0.0228312165 0
0.138333336 -0.0228312165 0
0.135000005 -0.0228312165 0
0.13166666 -0.0228312165 0
0.12833333 -0.0228312165 0
0.125 -0.0228312165 0
0.12166667 -0.0228312165 0
0.118333332 -0.0228312165 0
0.115000002 -0.0228312165 0
0.111666664 -0.0228312165 0
0.108333334 -0.0228312165 0
0.104999997 -0.0228312165 0
0.101666667 -0.0228312165 0
0.0983333364 -0.0228312165 0
0.0949999988 -0.0228312165 0
0.0916666687 -0.0228312165 0
0.088333331 -0.0228312165 0
0.0850000009 -0.0228312165 0
0.0816666633 -0.0228312165 0
0.0783333331 -0.0228312165 0
0.075000003 -0.0228312165 0
0.0716666654 -0.0228312165 0
0.0683333352 -0.0228312165 0
0.0649999976 -0.0228312165 0
0.0616666675 -0.0228312165 0
0.0583333336 -0.0228312165 0
0.0549999997 -0.0228312165 0
0.0516666658 -0.0228312165 0
0.0483333319 -0.0228312165 0
0.0450000018 -0.0228312165 0
0.0416666679 -0.0228312165 0
0.140000001 -0.0257179681 0
0.13666667 -0.0257179681 0
0.13333334 -0.0257179681 0
0.129999995 -0.0257179681 0
0.126666665 -0.0257179681 0
0.123333335 -0.0257179681 0
0.119999997 -0.0257179681 0
0.116666667 -0.0257179681 0
0.113333337 -0.0257179681 0
0.109999999 -0.0257179681 0
0.106666669 -0.0257179681 0
0.103333332 -0.0257179681 0
0.100000001 -0.0257179681 0
0.0966666639 -0.0257179681 0
0.0933333337 -0.0257179681 0
0.0900000036 -0.0257179681 0
0.086666666 -0.0257179681 0
0.0833333358 -0.0257179681 0
0.0799999982 -0.0257179681 0
0.0766666681 -0.0257179681 0
0.0733333305 -0.0257179681 0
0.0700000003 -0.0257179681 0
0.0666666701 -0.0257179681 0
0.0633333325 -0.0257179681 0
0.0599999987 -0.0257179681 0
0.0566666685 -0.0257179681 0
0.0533333346 -0.0257179681 0
0.0500000007 -0.0257179681 0
0.0466666669 -0.0257179681 0
0.043333333 -0.0257179681 0
0.0399999991 -0.0257179681 0
0.138333336 -0.0286047198 0
0.135000005 -0.0286047198 0
0.13166666 -0.0286047198 0
0.12833333 -0.0286047198 0
0.125 -0.0286047198 0
0.12166667 -0.0286047198 0
0.118333332 -0.0286047198 0
0.115000002 -0.0286047198 0
0.111666664 -0.0286047198 0
0.108333334 -0.0286047198 0
0.104999997 -0.0286047198 0
0.101666667 -0.0286047198 0
0.0983333364 -0.0286047198 0
0.0949999988 -0.0286047198 0
0.0916666687 -0.0286047198 0
0.088333331 -0.0286047198 0
0.0850000009 -0.0286047198 0
0.0816666633 -0.0286047198 0
0.0783333331 -0.0286047198 0
0.075000003 -0.0286047198 0
0.0716666654 -0.0286047198 0
0.0683333352 -0.0286047198 0
0.0649999976 -0.0286047198 0
0.0616666675 -0.0286047198 0
0.0583333336 -0.0286047198 0
0.0549999997 -0.0286047198 0
0.0516666658 -0.0286047198 0
0.0483333319 -0.0286047198 0
0.0450000018 -0.0286047198 0
0.0416666679 -0.0286047198 0
0.038333334 -0.0286047198 0
0.13666667 -0.0314914696 0
0.13333334 -0.0314914696 0
0.129999995 -0.0314914696 0
0.126666665 -0.0314914696 0
0.123333335 -0.0314914696 0
0.119999997 -0.0314914696 0
0.116666667 -0.0314914696 0
0.113333337 -0.0314914696 0
0.109999999 -0.0314914696 0
0.106666669 -0.0314914696 0
0.103333332 -0.0314914696 0
0.100000001 -0.0314914696 0
0.0966666639 -0.0314914696 0
0.0933333337 -0.0314914696 0
0.0900000036 -0.0314914696 0
0.086666666 -0.0314914696 0
0.0833333358 -0.0314914696 0
0.0799999982 -0.0314914696 0
0.0766666681 -0.0314914696 0
0.0733333305 -0.0314914696 0
0.0700000003 -0.0314914696 0
0.0666666701 -0.0314914696 0
0.0633333325 -0.0314914696 0
0.0599999987 -0.0314914696 0
0.0566666685 -0.0314914696 0
0.0533333346 -0.0314914696 0
0.0500000007 -0.0314914696 0
0.0466666669 -0.0314914696 0
0.043333333 -0.0314914696 0
0.0399999991 -0.0314914696 0
0.0366666652 -0.0314914696 0
0.135000005 -0.0343782231 0
0.13166666 -0.0343782231 0
0.12833333 -0.0343782231 0
0.125 -0.0343782231 0
0.12166667 -0.0343782231 0
0.118333332 -0.0343782231 0
0.115000002 -0.0343782231 0
0.111666664 -0.0343782231 0
0.108333334 -0.0343782231 0
0.104999997 -0.0343782231 0
0.101666667 -0.0343782231 0
0.0983333364 -0.0343782231 0
0.0949999988 -0.0343782231 0
0.0916666687 -0.0343782231 0
0.088333331 -0.0343782231 0
0.0850000009 -0.0343782231 0
0.0816666633 -0.0343782231 0
0.0783333331 -0.0343782231 0
0.075000003 -0.0343782231 0
0.0716666654 -0.0343782231 0
0.0683333352 -0.0343782231 0
0.0649999976 -0.0343782231 0
0.0616666675 -0.0343782231 0
0.0583333336 -0.0343782231 0
0.0549999997 -0.0343782231 0
0.0516666658 -0.0343782231 0
0.0483333319 -0.0343782231 0
0.0450000018 -0.0343782231 0
0.0416666679 -0.0343782231 0
0.038333334 -0.0343782231 0
0.0350000001 -0.0343782231 0
0.13333334 -0.0372649729 0
0.129999995 -0.0372649729 0
0.126666665 -0.0372649729 0
0.123333335 -0.0372649729 0
0.119999997 -0.0372649729 0
0.116666667 -0.0372649729 0
0.113333337 -0.0372649729 0
0.109999999 -0.0372649729 0
0.106666669 -0.0372649729 0
0.103333332 -0.0372649729 0
0.100000001 -0.0372649729 0
0.0966666639 -0.0372649729 0
0.0933333337 -0.0372649729 0
0.0900000036 -0.0372649729 0
0.086666666 -0.0372649729 0
0.0833333358 -0.0372649729 0
0.0799999982 -0.0372649729 0
0.0766666681 -0.0372649729 0
0.0733333305 -0.0372649729 0
0.0700000003 -0.0372649729 0
0.0666666701 -0.0372649729 0
0.0633333325 -0.0372649729 0
0.0599999987 -0.0372649729 0
0.0566666685 -0.0372649729 0
0.0533333346 -0.0372649729 0
0.0500000007 -0.0372649729 0
0.0466666669 -0.0372649729 0
0.043333333 -0.0372649729 0
0.0399999991 -0.0372649729 0
0.0366666652 -0.0372649729 0
0.0333333351 -0.0372649729 0
0.13166666 -0.0401517227 0
0.12833333 -0.0401517227 0
0.125 -0.0401517227 0
0.12166667 -0.0401517227 0
0.118333332 -0.0401517227 0
0.115000002 -0.0401517227 0
0.111666664 -0.0401517227 0
[...]
POINT_DATA 961
SCALARS Temp float 1
LOOKUP_TABLE default
337.9509925503777
288.0609302929005
250.1379107025661
224.16014239047846
207.73508109227794
198.1059354257032
192.84525804112516
190.1516116105568
188.8511456669669
188.25563600618625
187.9955454162692
187.8866553093426
187.8427570658193
187.8256494157965
187.81918392912647
187.81680638354615
187.8159638685675
187.81570632810806
187.8157730375505
187.81637483530355
187.8186677738455
187.826604374973
187.85246332718776
187.93155746188617
188.15696353815383
188.75091290896773
190.18701068286103
193.35169220562187
199.67614388235936
211.11801590042637
230.23532478220469
288.0609594619784
241.42268780948018
208.19464138494806
186.20408760578425
172.72334686649825
165.03874063061093
160.9448954204679
158.89504776546917
157.9246644146729
157.4878788548989
157.2999556307998
157.2223046968296
157.191360545117
157.1794242279364
157.17495266757115
157.17332810184928
157.1727699394581
157.17265697867626
157.1729301656958
157.17416872473225
157.1785937850238
157.19335926882766
157.23973160859003
157.37596193780476
157.74766336791035
158.68262152730895
160.8355381692375
165.347160106878
173.91605603236303
188.65302592144508
211.1180416306861
250.1378411366732
208.19461256624157
178.84603523642957
159.74942631531587
148.18712186115337
141.65435871033083
138.1948063121509
136.46877033468306
135.6531151603689
135.28613152591606
135.12816081335464
135.0628135257309
135.0367337684307
135.02665746871324
135.02287862904598
135.02150717350804
135.0210577463689
135.02105949286542
135.02164546406985
135.0239276586228
135.0317387572172
135.05683948401054
135.1325652181094
135.34570937401818
135.90157722052052
137.23568949414002
140.16433927064426
146.0147877719839
156.61032802538986
173.91604842691336
199.6761630361788
224.1600539304825
186.2040433465746
159.7494205637635
142.5562834090172
132.13329776651116
126.22599679319934
123.08430690309396
121.50923517396596
120.7611658754946
120.42292955728868
120.27665246491587
120.21588353475774
120.19153677333976
120.18209684464257
120.17854911049979
120.17726786712416
120.17688453935733
120.17703153783195
120.17809789617036
120.18195102425312
120.19461628226351
120.23372667137471
120.34686118230516
120.65162859833708
121.41145291616813
123.15443224821516
126.81449728057287
133.82135637524013
146.0147994804871
165.34716974548212
193.35166499353667
207.73499207686498
172.72330187500714
148.18710332642263
132.13333170657836
122.33194726118715
116.73865855064527
113.74507171357402
112.2357634237169
111.51540960436233
111.1883351342778
111.04638131872679
110.98723124554158
110.96347340846177
110.95424394315823
110.95077150153347
110.94953038500574
110.94921488027279
110.94957214014418
110.95132623998973
110.95732457624266
110.97625647939587
111.03235466407625
111.18788720019708
111.58921654911246
112.54800254943594
114.65880356049209
118.92437136620549
126.81449124699327
140.16433302954613
160.83552578589803
190.18699195882579
198.1058476208915
165.0387299918619
141.65437375511908
126.22597090602291
116.73865039558818
111.2923711227017
108.36349420686884
106.8811800352876
106.1715785922662
105.84861810507502
105.70818723142399
105.64958421280804
105.62601804642917
105.61685612304014
105.61341271269826
105.61220390108835
105.61197568110863
105.61261906406266
105.6152710079814
105.62391594099257
105.65011255954852
105.72462250288552
105.92289977471866
106.41440794128283
107.54477864772103
109.94812721379004
114.65880169513518
123.15443155709164
137.2356913516129
158.68259455233775
188.75090082594448
192.8452091785202
160.94488800181807
138.1948336178644
123.0842819359661
113.74506554128492
108.3634939850987
105.46134455129898
103.98955976922538
103.28393532389302
102.96242612180924
102.82250964336707
102.76408448123784
102.7405794666694
102.73143959760536
102.72801216444905
102.72683937565382
102.72672523894948
102.72772687806608
102.73144222421672
102.74303382271066
102.77679082466385
102.86913605573523
103.10580372619705
103.67218976213242
104.93411490409588
107.54477667867782
112.54799740297537
121.41144436651605
135.90157159814615
157.74765990852137
188.15697682026473
190.15159533772984
158.89506249666286
136.46873386850842
121.50922158719285
112.23576574175837
106.8811864990806
103.98955956915715
102.52170309011682
101.81749017789389
101.4964751046243
101.35672619165082
101.29835717898823
101.2748714315409
101.26574122949346
101.26232877093081
101.26119945594085
101.26122236893566
101.26263263193233
101.26748824826564
101.28203573693455
101.3228583307139
101.43067103951138
101.69815006703146
102.32007223047648
103.67218895873654
106.41440681835786
111.58921641968828
120.65162840578792
135.34569830685817
157.3759480352095
187.93156189137537
188.85114017912787
157.92472174945325
135.65309676704584
120.76116301099913
111.51541545122289
106.1715764032118
103.28393531230783
101.8174920590606
101.11376449153666
100.79291208601347
100.65321633783458
100.59486490168126
100.57138574599638
100.56226197293847
100.55886590036
100.55778718632565
100.55796105696275
100.55979485183573
100.5657571233586
100.58297830175424
100.629737605933
100.74959046062399
101.03925374872527
101.6981505868308
103.10580343249183
105.9228988142858
111.18788641906475
120.34685858685937
135.13257127198665
157.23974419205544
187.85249061933948
188.2557532993603
157.4878759811765
135.28613813989867
120.4229373079882
111.188347066185
105.84861850571113
102.96242827812173
101.49647488702888
100.79291186260585
100.47211110502785
100.33243232013199
100.27408648618949
100.25061064466675
100.24149310412034
100.23811507988874
100.23709026667221
100.23741580033729
100.23964819036537
100.24658217748112
100.26598675393046
100.31724216986603
100.44553727496172
100.74959012366786
101.43067080488426
102.86913607370805
105.7246224875425
111.03235536884975
120.23371582126074
135.05683015045315
157.19334940969873
187.8266087279832
187.99574593668345
157.2999536901713
135.12816647218278
120.27666042406473
111.04637673596886
105.70818781841302
102.82251238837436
101.35672603670452
100.6532166192451
100.33243229487834
100.19275888343064
100.13441523119535
100.11094206496912
100.10183104791398
100.09847185654641
100.09749974278368
100.09796415307632
100.10053735095164
100.10824455539546
100.12926211031656
100.1835958771739
100.31724235186566
100.62973770970252
101.32285800546912
102.77679027676623
105.6501120683821
110.97625497441652
120.19461672851627
135.0317450209769
157.1786043128304
187.81865158462716
187.88664136581895
157.22228521978582
135.06281253387203
120.21589137585784
110.98722500355832
105.64958504560494
102.76408261432533
101.29835723834373
100.59486419494225
100.27408647194478
100.13441533317855
100.07607337883678
100.05260311131916
100.04349898976272
100.04015805843387
100.0392332499531
100.03981368838113
100.04265185658856
100.05091768776458
100.07301633831376
100.12926223574974
100.26598686588385
100.5829781839177
101.2820363836214
102.74303511760162
105.6239193237442
110.95732227871216
120.1819475262232
135.02392850755055
157.174166084534
187.81636552075778
187.84270463968602
157.19134110324995
135.03673898411063
120.19152306436709
110.96347209395527
105.62602303636527
102.7405786518126
101.27487242859866
100.57138535240483
100.25061077284582
100.11094199687832
100.0526030756936
100.02913690763609
100.0200404173357
100.01671640907703
100.01583094943011
100.01650019004181
100.01952625156822
100.02815951920986
100.05091762009575
100.10824453022758
100.24658234188087
100.56575665184178
101.26748810944186
102.73144185081202
105.61527006746466
110.95132535692623
120.17809636058168
135.0216489622101
157.1729037587659
187.8157864497671
187.82557945551957
157.17939622046353
135.02666418900404
120.18208355498189
110.9542439330557
105.61685221536241
102.73143939498802
101.26574032483099
100.56226172781655
100.24149331951581
100.10183095275515
100.04349897761857
100.0200404108959
100.01095380606009
100.00764591936958
100.00679168495638
100.00752385630662
100.0106720608033
100.01952624330478
100.04265187381455
100.10053733132592
100.23964830235104
100.55979483436252
101.2626332909746
102.7277283036792
105.61261752699242
110.94956940211044
120.17702710937586
135.02105824479838
157.17266087309682
187.81570892276378
187.81912891105034
157.17494574252234
135.02285915425992
120.17854657818955
110.95077964259882
105.6134113435289
102.72801427702751
101.26232840560414
100.5588658333445
100.23811501684881
100.09847184118244
100.04015807923112
100.0167164031211
100.00764592373788
100.00435599268435
100.00352721822357
100.004301967972
100.00752385187441
100.01650017603204
100.03981366492306
100.0979641629971
100.23741573784781
100.55796063341101
101.2612221588427
102.72672456290017
105.61197503128592
110.94921385550963
120.17688304820227
135.02104372933368
157.17276252069817
187.8159353465522
187.8167640871194
157.17334126768452
135.02149575082305
120.17726933121784
110.94952382646584
105.6122031844124
102.72683733255215
101.26119938387102
100.55778737325339
100.2370901880146
100.09749974984034
100.03923319660781
100.01583095005454
100.00679167807685
100.00352721806796
100.00272278796486
100.00352721971794
100.00679168052018
100.01583096587176
100.03923322117996
100.09749971910308
100.23709038637585
100.55778716876137
101.26120012194508
102.72683845821457
105.61220224156021
110.94952861440596
120.17726350710028
135.02150894834764
157.17331205533156
187.81679750478287
187.815996330536
157.17275909281648
135.0210653344707
120.17689753109941
110.94921197598059
105.61197902518391
102.72672445683926
101.26122283384208
100.55796060114952
100.23741590506381
100.09796426191879
100.03981366006087
100.01650020798994
100.0075238537382
100.00430196948334
100.00352722092747
100.0043559952146
100.00764591500784
100.01671640877491
100.0401580410616
100.09847176999097
100.23811501841656
100.55886548224407
101.26232836699236
102.72801200179862
105.6134122993465
110.95077131441947
120.1785356791927
135.02287418006702
157.1749364536914
187.8191800872219
187.81578946775016
157.1726461681597
135.02106678074028
120.1770176799823
110.94957023403539
105.61261486664093
102.72772662365811
101.2626336583352
100.55979438144168
100.23964837489012
100.10053727450074
100.04265183630223
100.01952623726582
100.0106720565021
100.00752385900002
100.00679168649702
100.00764592031932
100.01095381219822
100.0200404203132
100.0434989625813
100.10183103110465
100.24149320840945
100.56226203612428
101.26574080965533
102.73143888441619
105.61685505132247
110.9542415635396
120.18209608077578
135.02665128711845
157.179421797018
187.8256734557062
187.81573567079838
157.17291174634033
135.02165508112338
120.17808343600522
110.95132690640139
105.61526701107657
102.73144184637015
101.26748739441408
100.56575674688226
100.24658244889937
100.10824446450225
100.0509176747135
100.02815951233204
100.01952624664871
100.01650018855374
100.01583094824822
100.0167164067161
100.02004042382838
100.02913689912464
100.0526030669295
100.11094204552803
100.25061073377096
100.57138560939983
101.27487191523824
102.74058050766124
105.62602102900534
110.96347052606905
120.19153956149692
135.03673694661683
157.1913692521338
187.8427755395478
187.81633154119268
157.17416709274505
135.02390827293559
120.18194709921967
110.9573169065
105.62391609024814
102.74303591851574
101.28203549581916
100.5829783819038
100.26598675245582
100.12926215357403
100.07301632321476
100.05091767437438
100.04265186323777
100.03981369499807
100.03923325049747
100.04015806048228
100.04349899374509
100.05260310321644
100.07607340892514
100.13441527935257
100.27408660099283
100.59486439706562
101.29835696132129
102.76408398002376
105.649583298017
110.9872308412041
120.21587613680617
135.0628103334043
157.22230057424233
187.8866642890684
187.81863991591834
157.1786029196957
135.03172263976248
120.19461877891622
110.97624973561103
105.65011238637676
102.77678900914087
101.32285830744772
100.6297379840321
100.31724221312705
100.18359601019982
100.12926210408243
100.10824454223335
100.1005373420374
100.09796414367987
100.09749974465734
100.09847187085425
100.10183104179585
100.11094206629807
100.13441524996155
100.19275885683848
100.33243239674168
100.65321633794635
101.35672685262482
102.82251094225501
105.7081857574041
111.04638273705709
120.27664919479585
135.12816200378322
157.29995668033152
187.9955473552499
187.8265933451488
157.19331989430853
135.05683074784235
120.23370791352973
111.03235054030169
105.72462448529197
102.86913453934311
101.43067129797834
100.74958991227683
100.4455371021011
100.31724212677794
100.26598670548073
100.24658218767642
100.23964822620104
100.23741580549272
100.23709026992753
100.23811508650151
100.24149309754077
100.25061065665635
100.27408645788626
100.33243237220155
100.47211115375923
100.79291166848799
101.4964753603452
102.96242677060918
105.84862027577624
111.18833410108978
120.42292852116321
135.28613763860008
157.48788270570458
188.25561800316024
187.8525275781885
157.23973461994777
135.13258931418417
120.34685987280552
111.18789299284867
105.92289970307382
103.10580591792176
101.69815233278509
101.03925429342765
100.74959145567357
100.62973827242325
100.58297888615071
100.56575769879639
100.55979542242453
100.55796168958075
100.55778786719809
100.55886650467512
100.56226261253931
100.57138635936326
100.59486544566688
100.65321690998897
100.7929123831415
101.11376509168515
101.81749106727938
103.28393312207812
106.17157690349478
111.51540384504234
120.76115476476346
135.6531025511805
157.92462540542786
188.85110486970584
187.9315551025122
157.375972025854
135.34570292462274
120.65163096042183
111.58922587753368
106.41440756957684
103.67219225982635
102.32007363153032
101.69815123966352
101.43067230041876
101.32285948999365
101.28203706247542
101.26748973433449
101.26263400639431
101.26122373375209
101.26120082105881
101.2623301001588
101.26574256189551
101.27487270832223
101.2983584846178
101.35672734891382
101.49647612638518
101.81749135875943
102.521702900933
103.98956054000638
106.88117862393554
112.23576067909701
121.50922736339582
136.4687644366722
158.89503817280243
190.15162234153289
188.1569551831845
157.74768735173424
135.90157260986348
121.4114528012432
112.54799690662055
107.54478012479717
104.93411780788092
103.67219067964878
103.10580567160471
102.86913749870487
102.77679200208149
102.74303499338095
102.73144341036193
102.72772833892533
102.72672687120976
102.72684072606809
102.72801363787536
102.73144092869148
102.7405806059044
102.76408563671339
102.8225106762307
102.96242738683179
103.28393596740825
103.98956043631371
105.46134725115651
108.36349198107052
113.74507062277505
123.08430711365001
138.1948045622193
160.94490110206624
192.84528706557867
188.75093886730264
158.68259314763202
137.23568355601836
123.15443729773432
114.65879686692834
109.94812889588368
107.54477823477487
106.41440741060518
105.92289932467622
105.72462175380711
105.65011239494748
105.62391649306042
105.6152713415961
105.61261936693923
105.61197591015845
105.61220404124724
105.61341278018699
105.61685597791877
105.62601784296407
105.64958358271406
105.7081868541978
105.84861820778444
106.17157838026361
106.88118112776829
108.36349202094091
111.2923734248041
116.73866483640553
126.22600806726855
141.65437488608956
165.03875767571606
198.10593407756167
190.1870229702573
160.83550363691043
140.16432653797574
126.814476988034
118.92436738283536
114.65880086641477
112.5479968864966
111.58921256145693
111.18788239504873
111.03234922042816
110.97625129958217
110.95731973192626
110.95132232432749
110.94956854596651
110.94921046413451
110.9495262985986
110.95076685796096
110.95423849160213
110.963467668371
110.98722552337586
111.04637622747447
111.18833034792199
111.51540617016272
112.23576130462203
113.74506791870968
116.73866136390568
122.33196461218208
132.13331265682552
148.18710562831072
172.72333054530552
207.73504329026792
193.35165941995905
165.34716805659207
146.0148220665642
133.82136645932533
126.81451757019417
123.15444857086185
121.41146741679306
120.65164179907276
120.34687310213255
120.23374034411533
120.19463266952712
120.18196769330781
120.1781141124395
120.17704705350059
120.17690015193894
120.17728325874826
120.17856337674904
120.18211003662732
120.19154863988278
120.21589665272339
120.27666753420623
120.42294541440518
120.76118237500178
121.50924960783458
123.08432372955494
126.22602001520004
132.1333304810931
142.55628131394928
159.74941891550827
186.20405326347785
224.16010523724682
199.67613658715425
173.91606156116242
156.61033512092857
146.01481223952607
140.16436487157284
137.23570717963207
135.90159473813236
135.34572400630955
135.13257840034376
135.05685542843813
135.03175837083532
135.02394872436844
135.02166488803206
135.0210777401134
135.0210778686393
135.0215254687186
135.02289298918683
135.02666932143893
135.03674597820861
135.06282937537816
135.1281801316394
135.2861534264746
135.65313571035972
136.46878829548507
138.19482821188478
141.65438612242576
148.18711782963868
159.74942496389374
178.84603550169214
208.19462910032198
250.1379267424131
211.11801343360722
188.65302860784664
173.91606187652636
165.34718483834627
160.83555086667513
158.68262845227088
157.7476648876388
157.37595730287515
157.2397304675802
157.19337468918255
157.17861307721984
157.1741779265027
157.17293623840365
157.1726693397414
157.17278336759216
157.17333419120382
157.17495201844162
157.179417801723
157.1913606695073
157.2223161616016
157.29997204966006
157.4878912599223
157.92467233717812
158.8950598664371
160.94491297990209
165.03876316414323
172.72333688549227
186.20407019166592
208.1946268943923
241.4226949576964
288.0609367230061
230.23528007476338
211.11800707354357
199.67618826793165
193.3517072594949
190.18701087377465
188.75091053647625
188.15695282945293
187.931515942818
187.85246240896572
187.82664191124056
187.81867377180387
187.81635923640738
187.81577485033276
187.8157276016501
187.81596628922938
187.81679963064803
187.8191536316847
187.8256213507515
187.8427547237669
187.8866772695963
187.9955605740034
188.25563114676385
188.8511470538411
190.15161781582907
192.8452732810965
198.1059204175667
207.73505589402154
224.16011562567854
250.13789344063468
288.06090643572304
337.95063086591847
