# vtk DataFile Version 2.0
Unstructured Grid Example
ASCII
DATASET UNSTRUCTURED_GRID

POINTS 961 float
0.100000001 0.00499999989 0
0.0966666639 0.00499999989 0
0.0933333337 0.00499999989 0
0.0900000036 0.00499999989 0
0.086666666 0.00499999989 0
0.0833333358 0.00499999989 0
0.0799999982 0.00499999989 0
0.0766666681 0.00499999989 0
0.0733333305 0.00499999989 0
0.0700000003 0.00499999989 0
0.0666666701 0.00499999989 0
0.0633333325 0.00499999989 0
0.0599999987 0.00499999989 0
0.0566666685 0.00499999989 0
0.0533333346 0.00499999989 0
0.0500000007 0.00499999989 0
0.0466666669 0.00499999989 0
0.043333333 0.00499999989 0
0.0399999991 0.00499999989 0
0.0366666652 0.00499999989 0
0.0333333351 0.00499999989 0
0.0299999993 0.00499999989 0
0.0266666673 0.00499999989 0
0.0233333334 0.00499999989 0
0.0199999996 0.00499999989 0
0.0166666675 0.00499999989 0
0.0133333337 0.00499999989 0
0.00999999978 0.00499999989 0
0.00666666683 0.00499999989 0
0.00333333341 0.00499999989 0
0 0.00499999989 0
0.100000001 0.00166666671 0
0.0966666639 0.00166666671 0
0.0933333337 0.00166666671 0
0.0900000036 0.00166666671 0
0.086666666 0.00166666671 0
0.0833333358 0.00166666671 0
0.0799999982 0.00166666671 0
0.0766666681 0.00166666671 0
0.0733333305 0.00166666671 0
0.0700000003 0.00166666671 0
0.0666666701 0.00166666671 0
0.0633333325 0.00166666671 0
0.0599999987 0.00166666671 0
0.0566666685 0.00166666671 0
0.0533333346 0.00166666671 0
0.0500000007 0.00166666671 0
0.0466666669 0.00166666671 0
0.043333333 0.00166666671 0
0.0399999991 0.00166666671 0
0.0366666652 0.00166666671 0
0.0333333351 0.00166666671 0
0.0299999993 0.00166666671 0
0.0266666673 0.00166666671 0
0.0233333334 0.00166666671 0
0.0199999996 0.00166666671 0
0.0166666675 0.00166666671 0
0.0133333337 0.00166666671 0
0.00999999978 0.00166666671 0
0.00666666683 0.00166666671 0
0.00333333341 0.00166666671 0
0 0.00166666671 0
0.100000001 -0.00166666671 0
0.0966666639 -0.00166666671 0
0.0933333337 -0.00166666671 0
0.0900000036 -0.00166666671 0
0.086666666 -0.00166666671 0
0.0833333358 -0.00166666671 0
0.0799999982 -0.00166666671 0
0.0766666681 -0.00166666671 0
0.0733333305 -0.00166666671 0
0.0700000003 -0.00166666671 0
0.0666666701 -0.00166666671 0
0.0633333325 -0.00166666671 0
0.0599999987 -0.00166666671 0
0.0566666685 -0.00166666671 0
0.0533333346 -0.00166666671 0
0.0500000007 -0.00166666671 0
0.0466666669 -0.00166666671 0
0.043333333 -0.00166666671 0
0.0399999991 -0.00166666671 0
0.0366666652 -0.00166666671 0
0.0333333351 -0.00166666671 0
0.0299999993 -0.00166666671 0
0.0266666673 -0.00166666671 0
0.0233333334 -0.00166666671 0
0.0199999996 -0.00166666671 0
0.0166666675 -0.00166666671 0
0.0133333337 -0.00166666671 0
0.00999999978 -0.00166666671 0
0.00666666683 -0.00166666671 0
0.00333333341 -0.00166666671 0
0 -0.00166666671 0
0.100000001 -0.00499999989 0
0.0966666639 -0.00499999989 0
0.0933333337 -0.00499999989 0
0.0900000036 -0.00499999989 0
0.086666666 -0.00499999989 0
0.0833333358 -0.00499999989 0
0.0799999982 -0.00499999989 0
0.0766666681 -0.00499999989 0
0.0733333305 -0.00499999989 0
0.0700000003 -0.00499999989 0
0.0666666701 -0.00499999989 0
0.0633333325 -0.00499999989 0
0.0599999987 -0.00499999989 0
0.0566666685 -0.00499999989 0
0.0533333346 -0.00499999989 0
0.0500000007 -0.00499999989 0
0.0466666669 -0.00499999989 0
0.043333333 -0.00499999989 0
0.0399999991 -0.00499999989 0
0.0366666652 -0.00499999989 0
0.0333333351 -0.00499999989 0
0.0299999993 -0.00499999989 0
0.0266666673 -0.00499999989 0
0.0233333334 -0.00499999989 0
0.0199999996 -0.00499999989 0
0.0166666675 -0.00499999989 0
0.0133333337 -0.00499999989 0
0.00999999978 -0.00499999989 0
0.00666666683 -0.00499999989 0
0.00333333341 -0.00499999989 0
0 -0.00499999989 0
0.100000001 -0.00833333377 0
0.0966666639 -0.00833333377 0
0.0933333337 -0.00833333377 0
0.0900000036 -0.00833333377 0
0.086666666 -0.00833333377 0
0.0833333358 -0.00833333377 0
0.0799999982 -0.00833333377 0
0.0766666681 -0.00833333377 0
0.0733333305 -0.00833333377 0
0.0700000003 -0.00833333377 0
0.0666666701 -0.00833333377 0
0.0633333325 -0.00833333377 0
0.0599999987 -0.00833333377 0
0.0566666685 -0.00833333377 0
0.0533333346 -0.00833333377 0
0.0500000007 -0.00833333377 0
0.0466666669 -0.00833333377 0
0.043333333 -0.00833333377 0
0.0399999991 -0.00833333377 0
0.0366666652 -0.00833333377 0
0.0333333351 -0.00833333377 0
0.0299999993 -0.00833333377 0
0.0266666673 -0.00833333377 0
0.0233333334 -0.00833333377 0
0.0199999996 -0.00833333377 0
0.0166666675 -0.00833333377 0
0.0133333337 -0.00833333377 0
0.00999999978 -0.00833333377 0
0.00666666683 -0.00833333377 0
0.00333333341 -0.00833333377 0
0 -0.00833333377 0
0.100000001 -0.0116666667 0
0.0966666639 -0.0116666667 0
0.0933333337 -0.0116666667 0
0.0900000036 -0.0116666667 0
0.086666666 -0.0116666667 0
0.0833333358 -0.0116666667 0
0.0799999982 -0.0116666667 0
0.0766666681 -0.0116666667 0
0.0733333305 -0.0116666667 0
0.0700000003 -0.0116666667 0
0.0666666701 -0.0116666667 0
0.0633333325 -0.0116666667 0
0.0599999987 -0.0116666667 0
0.0566666685 -0.0116666667 0
0.0533333346 -0.0116666667 0
0.0500000007 -0.0116666667 0
0.0466666669 -0.0116666667 0
0.043333333 -0.0116666667 0
0.0399999991 -0.0116666667 0
0.0366666652 -0.0116666667 0
0.0333333351 -0.0116666667 0
0.0299999993 -0.0116666667 0
0.0266666673 -0.0116666667 0
0.0233333334 -0.0116666667 0
0.0199999996 -0.0116666667 0
0.0166666675 -0.0116666667 0
0.0133333337 -0.0116666667 0
0.00999999978 -0.0116666667 0
0.00666666683 -0.0116666667 0
0.00333333341 -0.0116666667 0
0 -0.0116666667 0
0.100000001 -0.0149999997 0
0.0966666639 -0.0149999997 0
0.0933333337 -0.0149999997 0
0.0900000036 -0.0149999997 0
0.086666666 -0.0149999997 0
0.0833333358 -0.0149999997 0
0.0799999982 -0.0149999997 0
0.0766666681 -0.0149999997 0
0.0733333305 -0.0149999997 0
0.0700000003 -0.0149999997 0
0.0666666701 -0.0149999997 0
0.0633333325 -0.0149999997 0
0.0599999987 -0.0149999997 0
0.0566666685 -0.0149999997 0
0.0533333346 -0.0149999997 0
0.0500000007 -0.0149999997 0
0.0466666669 -0.0149999997 0
0.043333333 -0.0149999997 0
0.0399999991 -0.0149999997 0
0.0366666652 -0.0149999997 0
0.0333333351 -0.0149999997 0
0.0299999993 -0.0149999997 0
0.0266666673 -0.0149999997 0
0.0233333334 -0.0149999997 0
0.0199999996 -0.0149999997 0
0.0166666675 -0.0149999997 0
0.0133333337 -0.0149999997 0
0.00999999978 -0.0149999997 0
0.00666666683 -0.0149999997 0
0.00333333341 -0.0149999997 0
0 -0.0149999997 0
0.100000001 -0.0183333326 0
0.0966666639 -0.0183333326 0
0.0933333337 -0.0183333326 0
0.0900000036 -0.0183333326 0
0.086666666 -0.0183333326 0
0.0833333358 -0.0183333326 0
0.0799999982 -0.0183333326 0
0.0766666681 -0.0183333326 0
0.0733333305 -0.0183333326 0
0.0700000003 -0.0183333326 0
0.0666666701 -0.0183333326 0
0.0633333325 -0.0183333326 0
0.0599999987 -0.0183333326 0
0.0566666685 -0.0183333326 0
0.0533333346 -0.0183333326 0
0.0500000007 -0.0183333326 0
0.0466666669 -0.0183333326 0
0.043333333 -0.0183333326 0
0.0399999991 -0.0183333326 0
0.0366666652 -0.0183333326 0
0.0333333351 -0.0183333326 0
0.0299999993 -0.0183333326 0
0.0266666673 -0.0183333326 0
0.0233333334 -0.0183333326 0
0.0199999996 -0.0183333326 0
0.0166666675 -0.0183333326 0
0.0133333337 -0.0183333326 0
0.00999999978 -0.0183333326 0
0.00666666683 -0.0183333326 0
0.00333333341 -0.0183333326 0
0 -0.0183333326 0
0.100000001 -0.0216666665 0
0.0966666639 -0.0216666665 0
0.0933333337 -0.0216666665 0
0.0900000036 -0.0216666665 0
0.086666666 -0.0216666665 0
0.0833333358 -0.0216666665 0
0.0799999982 -0.0216666665 0
0.0766666681 -0.0216666665 0
0.0733333305 -0.0216666665 0
0.0700000003 -0.0216666665 0
0.0666666701 -0.0216666665 0
0.0633333325 -0.0216666665 0
0.0599999987 -0.0216666665 0
0.0566666685 -0.0216666665 0
0.0533333346 -0.0216666665 0
0.0500000007 -0.0216666665 0
0.0466666669 -0.0216666665 0
0.043333333 -0.0216666665 0
0.0399999991 -0.0216666665 0
0.0366666652 -0.0216666665 0
0.0333333351 -0.0216666665 0
0.0299999993 -0.0216666665 0
0.0266666673 -0.0216666665 0
0.0233333334 -0.0216666665 0
0.0199999996 -0.0216666665 0
0.0166666675 -0.0216666665 0
0.0133333337 -0.0216666665 0
0.00999999978 -0.0216666665 0
0.00666666683 -0.0216666665 0
0.00333333341 -0.0216666665 0
0 -0.0216666665 0
0.100000001 -0.0250000004 0
0.0966666639 -0.0250000004 0
0.0933333337 -0.0250000004 0
0.0900000036 -0.0250000004 0
0.086666666 -0.0250000004 0
0.0833333358 -0.0250000004 0
0.0799999982 -0.0250000004 0
0.0766666681 -0.0250000004 0
0.0733333305 -0.0250000004 0
0.0700000003 -0.0250000004 0
0.0666666701 -0.0250000004 0
0.0633333325 -0.0250000004 0
0.0599999987 -0.0250000004 0
0.0566666685 -0.0250000004 0
0.0533333346 -0.0250000004 0
0.0500000007 -0.0250000004 0
0.0466666669 -0.0250000004 0
0.043333333 -0.0250000004 0
0.0399999991 -0.0250000004 0
0.0366666652 -0.0250000004 0
0.0333333351 -0.0250000004 0
0.0299999993 -0.0250000004 0
0.0266666673 -0.0250000004 0
0.0233333334 -0.0250000004 0
0.0199999996 -0.0250000004 0
0.0166666675 -0.0250000004 0
0.0133333337 -0.0250000004 0
0.00999999978 -0.0250000004 0
0.00666666683 -0.0250000004 0
0.00333333341 -0.0250000004 0
0 -0.0250000004 0
0.100000001 -0.0283333343 0
0.0966666639 -0.0283333343 0
0.0933333337 -0.0283333343 0
0.0900000036 -0.0283333343 0
0.086666666 -0.0283333343 0
0.0833333358 -0.0283333343 0
0.0799999982 -0.0283333343 0
0.0766666681 -0.0283333343 0
0.0733333305 -0.0283333343 0
0.0700000003 -0.0283333343 0
0.0666666701 -0.0283333343 0
0.0633333325 -0.0283333343 0
0.0599999987 -0.0283333343 0
0.0566666685 -0.0283333343 0
0.0533333346 -0.0283333343 0
0.0500000007 -0.0283333343 0
0.0466666669 -0.0283333343 0
0.043333333 -0.0283333343 0
0.0399999991 -0.0283333343 0
0.0366666652 -0.0283333343 0
0.0333333351 -0.0283333343 0
0.0299999993 -0.0283333343 0
0.0266666673 -0.0283333343 0
0.0233333334 -0.0283333343 0
0.0199999996 -0.0283333343 0
0.0166666675 -0.0283333343 0
0.0133333337 -0.0283333343 0
0.00999999978 -0.0283333343 0
0.00666666683 -0.0283333343 0
0.00333333341 -0.0283333343 0
0 -0.0283333343 0
0.100000001 -0.0316666663 0
[...]
POINT_DATA 961
SCALARS Temp float 1
LOOKUP_TABLE default
305.9971215275425
274.3175267360875
250.58534812821742
233.93294225135213
223.00509600297855
216.2991083811121
212.44668698087833
210.37076096475357
209.31865631011797
208.815595699586
208.58789961063297
208.49000853964944
208.4499137887229
208.43427124454263
208.42861024397314
208.42721757880636
208.42861024375014
208.43427124384843
208.44991381511522
208.49000860883066
208.58789943602767
208.81559586213135
209.31865706824823
210.3707608691222
212.44668991069796
216.2991052654204
223.00509997963948
233.93293379095672
250.58535326517966
274.3175697492158
305.9971212832763
274.3175860786085
241.5150186325348
216.94079561782362
199.6968203903494
188.3801693974556
181.43515680118125
177.44514312373613
175.29491069489046
174.20505923138577
173.68390685082275
173.44800213297722
173.34657343382048
173.30502624957288
173.28881574448224
173.28294877580748
173.28150537153803
173.28294877556894
173.28881574373912
173.30502627685522
173.34657350532322
173.44800195159925
173.6839070180431
174.20506001388853
175.29491058907638
177.44514614258625
181.43515353678538
188.38017342624124
199.69681132833446
216.94080046304876
241.51505012903047
274.31757323037533
250.58535754491055
216.94076975709143
191.73361083723438
174.04349275485328
162.43241490316439
155.30552843629926
151.21025780365915
149.00285091651727
147.8837777670627
147.34853148643256
147.10619138679692
147.00197169990153
146.95927149953422
146.9426074249359
146.93657509769162
146.9350908165185
146.9365750974255
146.94260742410586
146.95927152739097
147.00197177288132
147.1061911991692
147.34853165502292
147.88377856303939
149.00285079026898
151.2102608624039
155.30552499529745
162.43241882048696
174.04348294588044
191.7336138146595
216.94080012072197
250.58535495172774
233.93293539211473
199.6967774334382
174.0434789050982
156.03749327118703
144.2168177193305
136.95962740137213
132.78840381932832
130.53942007773932
129.3989239611054
128.85325868872013
128.6061210316809
128.49980321542824
128.45622910797158
128.4392185534825
128.43305902846726
128.43154316075712
128.43305902816596
128.43921855254075
128.45622913614045
128.49980328919577
128.60612083855864
128.85325885638184
129.3989247625757
130.5394199270502
132.7884068877574
136.9596237970727
144.21682150516273
156.03748285773437
174.04348151469128
199.69680940071837
233.9329339602663
223.00510103558196
188.38013880267366
162.4324147210267
144.21683228824935
132.25613102779326
124.91119614868086
120.68837118997843
118.41086831895579
117.25552830883375
116.70256844565122
116.45203653070833
116.34421875443614
116.30001347992182
116.28275023032026
116.2764971324243
116.27495789707358
116.27649713208487
116.28275022925988
116.30001350821817
116.3442188285189
116.45203633308364
116.7025686113331
117.25552911138792
118.41086814635068
120.68837425724521
124.91119242766085
132.25613473966595
144.2168216346156
162.43241747165226
188.38017153642053
223.00510018275673
216.2991072927729
181.4351197302505
155.30552209581373
136.95963602727213
124.91119012740748
117.51075859058861
113.25495465163802
110.95901751833635
109.79396746600365
109.23617679391454
108.98336886904848
108.8745327361117
108.82989369532689
108.81245474484949
108.80613591072883
108.8045801490475
108.80613591035363
108.81245474367962
108.82989372364335
108.87453281024852
108.98336866803402
109.23617695758357
109.79396826809992
110.95901733009015
113.25495771843707
117.51075480381577
124.91119383008447
136.9596253070464
155.3055249787522
181.4351529257949
216.299106711059
212.44669039193897
177.44511061647222
151.2102563819473
132.78841763069332
120.68837042656259
113.25496000413109
108.97932663333289
106.6721626209298
105.50111815975342
104.94030302913704
104.68604965142957
104.57655747546156
104.5316350380163
104.51407973663811
104.50771684950982
104.5061499269675
104.50771684910494
104.51407973537897
104.53163506630708
104.57655754954942
104.68604944809074
104.94030319130817
105.50111896141203
106.67216242367837
108.979329703104
113.25495618844835
120.68837414623124
132.78840689901168
151.2102593616431
177.44514407695257
212.4466899572709
210.37076164817597
175.29487530421434
149.00284665139998
130.5394310817598
118.41086472054796
110.95902005123813
106.67215978143197
104.35854968913928
103.18401167351047
102.62140626160372
102.3662835712731
102.2563904945323
102.21129212196328
102.19366348438196
102.18727245570366
102.1856983414797
102.18727245527649
102.19366348305772
102.21129215022009
102.25639056855883
102.36628336648997
102.62140642290198
103.18401247519652
104.35854948778473
106.67216285599139
110.9590162258937
118.4108684599275
130.53942035535866
149.00284969229628
175.29490891180754
210.37076129392017
209.31865758538598
174.20502442273144
147.88377415592606
129.39893567580654
117.25552543507091
109.79397075250105
105.50111607750624
103.1840124395682
102.00755050661982
101.44394251420327
101.18832453905527
101.07819904065107
101.03299689051421
101.01532426665558
101.00891610814385
101.00733757455015
101.00891610770162
101.01532426528874
101.03299691874561
101.07819911463883
101.18832433346168
101.44394267511309
102.00755130866717
103.18401223688184
105.50111915659657
109.79396692540222
117.25552918940285
129.3989249570822
147.88377723233017
174.20505810806338
209.31865727414063
208.81559605714764
173.68387107613904
147.348526909434
128.853269439714
116.702564597861
109.23617911019835
104.94029997252325
102.62140605457726
101.44394153941697
100.8798017725148
100.62391624922388
100.51366284308249
100.46840251097144
100.45070477903091
100.44428668577449
100.4427055627893
100.44428668532301
100.45070477763892
100.46840253918921
100.51366291705654
100.62391604322079
100.87980193331727
101.44394234191029
102.62140585175929
104.94030305494022
109.236175283791
116.70256836159277
128.85325872686855
147.34853000494056
173.68390480042203
208.815595767918
208.58789975885034
173.44796613428898
147.1061865913272
128.60613156923552
116.45203246765746
108.98337097408304
104.6860463831953
102.36628315434916
101.18832335421837
100.6239160395574
100.3678933199855
100.25757303344993
100.21228167772841
100.19457030043853
100.18814671632244
100.18656414670004
100.18814671586581
100.19457029903327
100.21228170594134
100.25757310742569
100.36789311379738
100.62391620037364
101.18832415708451
102.36628295175525
104.68604946769344
108.98336714868522
116.45203623662552
128.60612085999543
147.10618969642798
173.44799987705616
208.5878994803188
208.4900088666527
173.3465376172671
147.00196709652772
128.49981395296462
116.34421489466934
108.87453504908927
104.57655441692724
102.25639028933797
101.07819806822299
100.5136628464362
100.25757324669928
100.14721969643459
100.10191259459937
100.08419415310051
100.07776767615158
100.07618433582267
100.07776767569243
100.08419415168888
100.10191262281214
100.14721977041805
100.25757304043708
100.51366300729768
101.07819887134201
102.25639008698181
104.57655750258343
108.87453122442459
116.34421866629732
128.499803245661
147.00197020614982
173.34657136835148
208.49000859304556
208.44991408279807
173.30499039761108
146.9592668617974
128.45623981211415
116.30000958650034
108.82989597553082
104.53163194677956
102.21129188455635
101.03299588595846
100.46840248236222
100.21228185906554
100.10191256266012
100.05659785191214
100.03887592728672
100.03244799834371
100.03086426677882
100.03244799788328
100.03887592587249
100.05659788012623
100.10191263665118
100.21228165277778
100.46840264326336
101.03299668922605
102.2112916823622
104.53163503302281
108.82989215128835
116.30001335937997
128.45622910575497
146.95926997342812
173.30502415225126
208.4499138113397
208.43427151491724
173.2887798674513
146.942602762215
128.43922923277606
116.28274631176558
108.81245700015845
104.51407662046518
102.19366322220586
101.01532323734996
100.45070472573664
100.19457045711152
100.08419409648478
100.03887590261034
100.02115235171652
100.01472373294493
100.01313981345758
100.01472373248413
100.02115235030138
100.0388759308261
100.08419417048144
100.19457025081688
100.45070488666357
101.01532404069582
102.19366302010266
104.51407970698342
108.81245317612878
116.28275008519671
128.43921852684358
146.94260587469049
173.28881362353783
208.43427124435067
208.42861051644613
173.28291290076567
146.93657043730138
128.43306971038092
116.27649321656254
108.80613816894729
104.50771373631918
102.18727219663285
101.00891508198882
100.44428663567957
100.18814687621654
100.07776762275948
100.03244797689457
100.01472373617409
100.00829482030386
100.00671081910603
100.00829481984294
100.01472373475873
100.03244800511142
100.07776769675945
100.18814666992117
100.4442867966206
101.0089158853719
102.187271994575
104.50771682295664
108.80613434501666
116.27649699022182
128.433059004632
146.9365735501142
173.2829466574075
208.42861024623184
208.4272178529557
173.28146949819163
146.93508615795184
128.4315538446068
116.2749539832021
108.80458240934101
104.50614681589394
102.18569808457472
101.00733655058461
100.44270551490413
100.18656430881397
100.0761842846533
100.03086424755472
100.0131398189126
100.00671082133226
100.0051267975284
100.00671082087125
100.01313981749735
100.03086427577212
100.07618435865473
100.18656410251975
100.44270567585178
101.00733735398276
102.18569788253782
104.50614990257641
108.80457858545685
116.27495775694769
128.43154313894024
146.9350892708912
173.2815032550172
208.4272175828752
208.4286105173044
173.2829129016631
146.93657043824626
128.4330697113773
116.2764932176096
108.80613817003952
104.50771373744777
102.18727219778813
101.008915083162
100.44428663686367
100.18814687740657
100.07776762395248
100.03244797808895
100.01472373736898
100.00829482149895
100.00671082030117
100.00829482103802
100.01472373595375
100.03244800630627
100.07776769795396
100.188146671115
100.44428679781309
101.00891588656202
102.18727199576101
104.50771682413612
108.8061343461864
116.27649699137731
128.43305900576811
146.93657355122508
173.2829466584866
208.42861024727264
208.434271517223
173.2887798698659
146.94260276476746
128.43922923548183
116.28274631462291
108.81245700314967
104.51407662356291
102.19366322538006
101.01532324057395
100.45070472898992
100.19457046038023
100.08419409976078
100.03887590588941
100.02115235499664
100.0147237362254
100.01313981673798
100.01472373576445
100.02115235358158
100.0388759341058
100.08419417376037
100.19457025409415
100.45070488993741
101.01532404396343
102.19366302335959
104.51407971022286
108.81245317934149
116.28275008837056
128.43921852996422
146.94260587774153
173.28881362650156
208.43427124720907
208.4499140887434
173.30499040384342
146.9592668684
128.4562398191303
116.30000959392149
108.82989598330362
104.53163195482479
102.2112918927907
101.03299589431063
100.46840249078029
100.21228186751617
100.101912571125
100.0565978603823
100.03887593575838
100.03244800681546
100.03086427525042
100.03244800635467
100.0388759343435
100.05659788859644
100.1019126451196
100.21228166124243
100.46840265172041
101.03299669766865
102.21129169077922
104.53163504139724
108.82989215959606
116.30001336759005
128.45622911382927
146.95926998132373
173.30502415992194
208.449913818738
208.49000888325216
173.34653763465897
147.0019671149272
128.49981397247004
116.34421491523396
108.87453507054722
104.57655443905293
102.25639031190715
101.0781980910542
100.51366286940427
100.25757326972987
100.1472197194892
100.10191261766128
100.08419417616354
100.07776769921408
100.07618435888423
100.07776769875343
100.08419417474896
100.10191264587046
100.14721979347267
100.25757306348348
100.51366303032653
101.07819889433696
102.2563901099144
104.5765575254095
108.87453124708036
116.34421868869798
128.4998032677022
147.0019702277115
173.34657138930424
208.49000861325592
208.5878998840901
173.44796626454746
147.10618672651074
128.60613170896994
116.45203261125778
108.98337112066346
104.68604653184627
102.36628330429147
101.18832350488135
100.62391619057833
100.36789347116307
100.2575731846863
100.21228182898258
100.19457045169591
100.18814686757884
100.1865642979547
100.1881468671183
100.19457045028193
100.21228185718131
100.25757325864613
100.36789326497485
100.62391635146166
101.18832430799635
102.36628310233974
104.68604961770522
108.98336729775488
116.4520363842357
128.60612100547263
147.10618983895534
173.44800001570826
208.58789961411335
208.81559595460348
173.68387097115183
147.3485268049594
128.85326933768303
116.7025644989554
109.2361790141095
104.94029987845155
102.62140596168548
101.44394144707954
100.87980168036702
100.6239161570995
100.51366275092848
100.46840241878373
100.45070468681939
100.44428659354938
100.44270547055771
100.44428659308934
100.45070468540655
100.46840244696224
100.5136628248414
100.6239159510292
100.87980184116952
101.4439422498398
102.62140575982058
104.94030296322191
109.2361751924379
116.70256827083847
128.85325863707385
147.34852991662257
173.68390471425167
208.81559568467347
209.31865816296175
174.2050250240828
147.88377478151585
129.39893632392366
117.25552610177675
109.79397143267408
105.50111676620601
103.18401313296877
102.00755120226053
101.44394321074776
101.18832523588986
101.07819973754168
101.03299758739313
101.01532496351379
101.00891680498724
101.00733827138407
101.00891680452787
101.0153249621032
101.03299761553394
101.07819981136545
101.18832503004728
101.4439433713907
102.00755200430774
103.1840129312791
105.5011198487143
109.79396761360533
117.25552987131971
129.3989256295523
147.8837778914744
174.20505874947193
209.3186578931398
210.37076118616793
175.29487483280738
149.00284618605951
130.53943063092544
118.41086428506384
110.95901962718725
106.67215936375247
104.35854927395896
103.18401125872272
102.62140584642388
102.36628315559298
102.25639007847693
102.21129170568108
102.19366306798017
102.18727203924504
102.18569792499697
102.18727203878706
102.19366306657324
102.21129173375517
102.25639015213989
102.36628295016766
102.62140600676888
103.18401205941194
104.3585490726043
106.67216244180796
110.95901581330607
118.41086804987049
130.5394199493097
149.00284929249813
175.2949085213605
210.3707609165826
212.44669346860223
177.44511381982318
151.21025971262742
132.78842107397594
120.6883739549332
113.2549635868654
108.97933024548743
106.67216624656018
105.50112179054912
104.94030666146938
104.68605328399204
104.5765611079099
104.53163867032653
104.51408336885709
104.507720481679
104.50615355910917
104.50772048122313
104.51408336745642
104.53163869828815
104.57656118129727
104.6860530792921
104.94030682128682
105.50112258878957
106.67216604581236
108.97933331525843
113.25495978275237
120.6883777106879
132.78841041698345
151.21026281220503
177.44514743608184
212.4466931995046
216.2991084050307
181.43512092201107
155.3055234151999
136.95963747688722
124.91119167167207
117.51076018597638
113.25495626649665
110.95901913710733
109.79396908325472
109.23617840872804
108.9833704819779
108.87453434789498
108.82989530650356
108.81245635573548
108.80613752148574
108.80458175975028
108.80613752103305
108.8124563543443
108.82989533428513
108.87453442083402
108.983370278474
109.23617856766116
109.79396987732066
110.95901893739756
113.25495932172566
117.51075639920352
124.91119541112984
136.95962686464605
155.30552650219147
181.43515440478822
216.29910813687218
223.0050957573444
188.38013343149896
162.4324094396692
144.21682712608148
132.25612593038514
124.91119105230158
120.68836607035172
118.41086317548348
117.25552314794535
116.70256327401496
116.45203135315043
116.3442135738919
116.30000829797926
116.28274504776468
116.27649194961671
116.27495271417358
116.2764919491689
116.28274504638773
116.30000832548683
116.3442136461386
116.45203115151578
116.70256343154541
117.25552393528831
118.41086297745099
120.68836910153222
124.91118729450073
132.2561296422577
144.2168165902493
162.43241250498372
188.38016668300588
223.00509549087425
233.9329418217732
199.69678441123668
174.04348660758816
156.03750156690938
144.21682623757948
136.95963596996472
132.7884123881257
130.53942863433335
129.39893250612312
128.8532672258173
128.60612956417125
128.49981174551922
128.45623763691603
128.43922708191664
128.43306755668644
128.43155168888597
128.43306755624536
128.4392270805603
128.45623766402687
128.49981181675093
128.6061293653061
128.85326738124255
129.39893328324044
130.53942843885866
132.78841538186546
136.95963225768057
144.21682990560979
156.0374911534566
174.04348963790991
199.69681728744146
233.9329415581292
250.58534788385242
216.94076025668372
191.7336032086158
174.04348543753386
162.4324073834121
155.30552074336813
151.21024998898508
149.00284302648853
147.88376983400534
147.34852353051107
147.10618341950436
147.0019637272924
146.9592635245785
146.94259944899878
146.93656712136655
146.93508284005424
146.93656712093454
146.94259944767023
146.9592635511421
147.00196379710988
147.1061832245328
147.3485236829448
147.88377059642744
149.00284283469773
151.21025292784793
155.3055170983126
162.43241098604494
174.04347520783105
191.73360618604033
216.94079256301256
250.58534762461002
274.3175981525759
241.5150449896572
216.94082471639942
199.69684886756372
188.38019777314332
181.43518512546814
177.44517142004588
175.29493897219473
174.20508749604994
173.6839351077356
173.44803038555884
173.34660168418293
173.30505449888287
173.28884399332497
173.28297702444974
173.28153362008425
173.2829770240298
173.28884399203275
173.305054524727
173.34660175212505
173.44803019578728
173.68393525613897
174.20508823849536
175.29493878542064
177.44517428311718
181.43518157383875
188.3802012841678
199.6968388966214
216.940827618922
241.51507648614628
274.31759789971187
305.9971213894627
274.3175399736078
250.58535046111876
233.93294334338452
223.00509647531203
216.29910856270186
212.44668700473892
210.37076090240288
209.3186562016941
208.81559556760055
208.58789946720802
208.49000839096303
208.44991363774193
208.43427109261037
208.42861009166606
208.42721742636016
208.42861009126082
208.43427109136363
208.44991366268155
208.4900084565333
208.58789928404784
208.8155957108464
209.318656918401
210.3707607221006
212.44668976898777
216.2991051334544
223.0050998656171
233.9329337147817
250.5853532641363
274.31757039136636
305.9971211452158
