# vtk DataFile Version 2.0
Unstructured Grid Example
ASCII
DATASET UNSTRUCTURED_GRID

POINTS 961 float
0.100000001 0.00499999989 0
0.0966666639 0.00499999989 0
0.0933333337 0.00499999989 0
0.0900000036 0.00499999989 0
0.086666666 0.00499999989 0
0.0833333358 0.00499999989 0
0.0799999982 0.00499999989 0
0.0766666681 0.00499999989 0
0.0733333305 0.00499999989 0
0.0700000003 0.00499999989 0
0.0666666701 0.00499999989 0
0.0633333325 0.00499999989 0
0.0599999987 0.00499999989 0
0.0566666685 0.00499999989 0
0.0533333346 0.00499999989 0
0.0500000007 0.00499999989 0
0.0466666669 0.00499999989 0
0.043333333 0.00499999989 0
0.0399999991 0.00499999989 0
0.0366666652 0.00499999989 0
0.0333333351 0.00499999989 0
0.0299999993 0.00499999989 0
0.0266666673 0.00499999989 0
0.0233333334 0.00499999989 0
0.0199999996 0.00499999989 0
0.0166666675 0.00499999989 0
0.0133333337 0.00499999989 0
0.00999999978 0.00499999989 0
0.00666666683 0.00499999989 0
0.00333333341 0.00499999989 0
0 0.00499999989 0
0.100000001 0.00166666671 0
0.0966666639 0.00166666671 0
0.0933333337 0.00166666671 0
0.0900000036 0.00166666671 0
0.086666666 0.00166666671 0
0.0833333358 0.00166666671 0
0.0799999982 0.00166666671 0
0.0766666681 0.00166666671 0
0.0733333305 0.00166666671 0
0.0700000003 0.00166666671 0
0.0666666701 0.00166666671 0
0.0633333325 0.00166666671 0
0.0599999987 0.00166666671 0
0.0566666685 0.00166666671 0
0.0533333346 0.00166666671 0
0.0500000007 0.00166666671 0
0.0466666669 0.00166666671 0
0.043333333 0.00166666671 0
0.0399999991 0.00166666671 0
0.0366666652 0.00166666671 0
0.0333333351 0.00166666671 0
0.0299999993 0.00166666671 0
0.0266666673 0.00166666671 0
0.0233333334 0.00166666671 0
0.0199999996 0.00166666671 0
0.0166666675 0.00166666671 0
0.0133333337 0.00166666671 0
0.00999999978 0.00166666671 0
0.00666666683 0.00166666671 0
0.00333333341 0.00166666671 0
0 0.00166666671 0
0.100000001 -0.00166666671 0
0.0966666639 -0.00166666671 0
0.0933333337 -0.00166666671 0
0.0900000036 -0.00166666671 0
0.086666666 -0.00166666671 0
0.0833333358 -0.00166666671 0
0.0799999982 -0.00166666671 0
0.0766666681 -0.00166666671 0
0.0733333305 -0.00166666671 0
0.0700000003 -0.00166666671 0
0.0666666701 -0.00166666671 0
0.0633333325 -0.00166666671 0
0.0599999987 -0.00166666671 0
0.0566666685 -0.00166666671 0
0.0533333346 -0.00166666671 0
0.0500000007 -0.00166666671 0
0.0466666669 -0.00166666671 0
0.043333333 -0.00166666671 0
0.0399999991 -0.00166666671 0
0.0366666652 -0.00166666671 0
0.0333333351 -0.00166666671 0
0.0299999993 -0.00166666671 0
0.0266666673 -0.00166666671 0
0.0233333334 -0.00166666671 0
0.0199999996 -0.00166666671 0
0.0166666675 -0.00166666671 0
0.0133333337 -0.00166666671 0
0.00999999978 -0.00166666671 0
0.00666666683 -0.00166666671 0
0.00333333341 -0.00166666671 0
0 -0.00166666671 0
0.100000001 -0.00499999989 0
0.0966666639 -0.00499999989 0
0.0933333337 -0.00499999989 0
0.0900000036 -0.00499999989 0
0.086666666 -0.00499999989 0
0.0833333358 -0.00499999989 0
0.0799999982 -0.00499999989 0
0.0766666681 -0.00499999989 0
0.0733333305 -0.00499999989 0
0.0700000003 -0.00499999989 0
0.0666666701 -0.00499999989 0
0.0633333325 -0.00499999989 0
0.0599999987 -0.00499999989 0
0.0566666685 -0.00499999989 0
0.0533333346 -0.00499999989 0
0.0500000007 -0.00499999989 0
0.0466666669 -0.00499999989 0
0.043333333 -0.00499999989 0
0.0399999991 -0.00499999989 0
0.0366666652 -0.00499999989 0
0.0333333351 -0.00499999989 0
0.0299999993 -0.00499999989 0
0.0266666673 -0.00499999989 0
0.0233333334 -0.00499999989 0
0.0199999996 -0.00499999989 0
0.0166666675 -0.00499999989 0
0.0133333337 -0.00499999989 0
0.00999999978 -0.00499999989 0
0.00666666683 -0.00499999989 0
0.00333333341 -0.00499999989 0
0 -0.00499999989 0
0.100000001 -0.00833333377 0
0.0966666639 -0.00833333377 0
0.0933333337 -0.00833333377 0
0.0900000036 -0.00833333377 0
0.086666666 -0.00833333377 0
0.0833333358 -0.00833333377 0
0.0799999982 -0.00833333377 0
0.0766666681 -0.00833333377 0
0.0733333305 -0.00833333377 0
0.0700000003 -0.00833333377 0
0.0666666701 -0.00833333377 0
0.0633333325 -0.00833333377 0
0.0599999987 -0.00833333377 0
0.0566666685 -0.00833333377 0
0.0533333346 -0.00833333377 0
0.0500000007 -0.00833333377 0
0.0466666669 -0.00833333377 0
0.043333333 -0.00833333377 0
0.0399999991 -0.00833333377 0
0.0366666652 -0.00833333377 0
0.0333333351 -0.00833333377 0
0.0299999993 -0.00833333377 0
0.0266666673 -0.00833333377 0
0.0233333334 -0.00833333377 0
0.0199999996 -0.00833333377 0
0.0166666675 -0.00833333377 0
0.0133333337 -0.00833333377 0
0.00999999978 -0.00833333377 0
0.00666666683 -0.00833333377 0
0.00333333341 -0.00833333377 0
0 -0.00833333377 0
0.100000001 -0.0116666667 0
0.0966666639 -0.0116666667 0
0.0933333337 -0.0116666667 0
0.0900000036 -0.0116666667 0
0.086666666 -0.0116666667 0
0.0833333358 -0.0116666667 0
0.0799999982 -0.0116666667 0
0.0766666681 -0.0116666667 0
0.0733333305 -0.0116666667 0
0.0700000003 -0.0116666667 0
0.0666666701 -0.0116666667 0
0.0633333325 -0.0116666667 0
0.0599999987 -0.0116666667 0
0.0566666685 -0.0116666667 0
0.0533333346 -0.0116666667 0
0.0500000007 -0.0116666667 0
0.0466666669 -0.0116666667 0
0.043333333 -0.0116666667 0
0.0399999991 -0.0116666667 0
0.0366666652 -0.0116666667 0
0.0333333351 -0.0116666667 0
0.0299999993 -0.0116666667 0
0.0266666673 -0.0116666667 0
0.0233333334 -0.0116666667 0
0.0199999996 -0.0116666667 0
0.0166666675 -0.0116666667 0
0.0133333337 -0.0116666667 0
0.00999999978 -0.0116666667 0
0.00666666683 -0.0116666667 0
0.00333333341 -0.0116666667 0
0 -0.0116666667 0
0.100000001 -0.0149999997 0
0.0966666639 -0.0149999997 0
0.0933333337 -0.0149999997 0
0.0900000036 -0.0149999997 0
0.086666666 -0.0149999997 0
0.0833333358 -0.0149999997 0
0.0799999982 -0.0149999997 0
0.0766666681 -0.0149999997 0
0.0733333305 -0.0149999997 0
0.0700000003 -0.0149999997 0
0.0666666701 -0.0149999997 0
0.0633333325 -0.0149999997 0
0.0599999987 -0.0149999997 0
0.0566666685 -0.0149999997 0
0.0533333346 -0.0149999997 0
0.0500000007 -0.0149999997 0
0.0466666669 -0.0149999997 0
0.043333333 -0.0149999997 0
0.0399999991 -0.0149999997 0
0.0366666652 -0.0149999997 0
0.0333333351 -0.0149999997 0
0.0299999993 -0.0149999997 0
0.0266666673 -0.0149999997 0
0.0233333334 -0.0149999997 0
0.0199999996 -0.0149999997 0
0.0166666675 -0.0149999997 0
0.0133333337 -0.0149999997 0
0.00999999978 -0.0149999997 0
0.00666666683 -0.0149999997 0
0.00333333341 -0.0149999997 0
0 -0.0149999997 0
0.100000001 -0.0183333326 0
0.0966666639 -0.0183333326 0
0.0933333337 -0.0183333326 0
0.0900000036 -0.0183333326 0
0.086666666 -0.0183333326 0
0.0833333358 -0.0183333326 0
0.0799999982 -0.0183333326 0
0.0766666681 -0.0183333326 0
0.0733333305 -0.0183333326 0
0.0700000003 -0.0183333326 0
0.0666666701 -0.0183333326 0
0.0633333325 -0.0183333326 0
0.0599999987 -0.0183333326 0
0.0566666685 -0.0183333326 0
0.0533333346 -0.0183333326 0
0.0500000007 -0.0183333326 0
0.0466666669 -0.0183333326 0
0.043333333 -0.0183333326 0
0.0399999991 -0.0183333326 0
0.0366666652 -0.0183333326 0
0.0333333351 -0.0183333326 0
0.0299999993 -0.0183333326 0
0.0266666673 -0.0183333326 0
0.0233333334 -0.0183333326 0
0.0199999996 -0.0183333326 0
0.0166666675 -0.0183333326 0
0.0133333337 -0.0183333326 0
0.00999999978 -0.0183333326 0
0.00666666683 -0.0183333326 0
0.00333333341 -0.0183333326 0
0 -0.0183333326 0
0.100000001 -0.0216666665 0
0.0966666639 -0.0216666665 0
0.0933333337 -0.0216666665 0
0.0900000036 -0.0216666665 0
0.086666666 -0.0216666665 0
0.0833333358 -0.0216666665 0
0.0799999982 -0.0216666665 0
0.0766666681 -0.0216666665 0
0.0733333305 -0.0216666665 0
0.0700000003 -0.0216666665 0
0.0666666701 -0.0216666665 0
0.0633333325 -0.0216666665 0
0.0599999987 -0.0216666665 0
0.0566666685 -0.0216666665 0
0.0533333346 -0.0216666665 0
0.0500000007 -0.0216666665 0
0.0466666669 -0.0216666665 0
0.043333333 -0.0216666665 0
0.0399999991 -0.0216666665 0
0.0366666652 -0.0216666665 0
0.0333333351 -0.0216666665 0
0.0299999993 -0.0216666665 0
0.0266666673 -0.0216666665 0
0.0233333334 -0.0216666665 0
0.0199999996 -0.0216666665 0
0.0166666675 -0.0216666665 0
0.0133333337 -0.0216666665 0
0.00999999978 -0.0216666665 0
0.00666666683 -0.0216666665 0
0.00333333341 -0.0216666665 0
0 -0.0216666665 0
0.100000001 -0.0250000004 0
0.0966666639 -0.0250000004 0
0.0933333337 -0.0250000004 0
0.0900000036 -0.0250000004 0
0.086666666 -0.0250000004 0
0.0833333358 -0.0250000004 0
0.0799999982 -0.0250000004 0
0.0766666681 -0.0250000004 0
0.0733333305 -0.0250000004 0
0.0700000003 -0.0250000004 0
0.0666666701 -0.0250000004 0
0.0633333325 -0.0250000004 0
0.0599999987 -0.0250000004 0
0.0566666685 -0.0250000004 0
0.0533333346 -0.0250000004 0
0.0500000007 -0.0250000004 0
0.0466666669 -0.0250000004 0
0.043333333 -0.0250000004 0
0.0399999991 -0.0250000004 0
0.0366666652 -0.0250000004 0
0.0333333351 -0.0250000004 0
0.0299999993 -0.0250000004 0
0.0266666673 -0.0250000004 0
0.0233333334 -0.0250000004 0
0.0199999996 -0.0250000004 0
0.0166666675 -0.0250000004 0
0.0133333337 -0.0250000004 0
0.00999999978 -0.0250000004 0
0.00666666683 -0.0250000004 0
0.00333333341 -0.0250000004 0
0 -0.0250000004 0
0.100000001 -0.0283333343 0
0.0966666639 -0.0283333343 0
0.0933333337 -0.0283333343 0
0.0900000036 -0.0283333343 0
0.086666666 -0.0283333343 0
0.0833333358 -0.0283333343 0
0.0799999982 -0.0283333343 0
0.0766666681 -0.0283333343 0
0.0733333305 -0.0283333343 0
0.0700000003 -0.0283333343 0
0.0666666701 -0.0283333343 0
0.0633333325 -0.0283333343 0
0.0599999987 -0.0283333343 0
0.0566666685 -0.0283333343 0
0.0533333346 -0.0283333343 0
0.0500000007 -0.0283333343 0
0.0466666669 -0.0283333343 0
0.043333333 -0.0283333343 0
0.0399999991 -0.0283333343 0
0.0366666652 -0.0283333343 0
0.0333333351 -0.0283333343 0
0.0299999993 -0.0283333343 0
0.0266666673 -0.0283333343 0
0.0233333334 -0.0283333343 0
0.0199999996 -0.0283333343 0
0.0166666675 -0.0283333343 0
0.0133333337 -0.0283333343 0
0.00999999978 -0.0283333343 0
0.00666666683 -0.0283333343 0
0.00333333341 -0.0283333343 0
0 -0.0283333343 0
0.100000001 -0.0316666663 0
[...]
POINT_DATA 961
SCALARS Temp float 1
LOOKUP_TABLE default
149.55694525815042
129.23998144360007
125.85392354858844
125.28574815386722
125.19036678771124
125.17432721791235
125.17162906432605
125.17117482158463
125.17109832742682
125.17108543998064
125.17108326826052
125.17108290218371
125.17108284046515
125.17108283005884
125.17108282831194
125.17108282806579
125.17108282831194
125.17108283005885
125.17108284046513
125.17108290218383
125.17108326825903
125.17108543998167
125.1710983274537
125.17117482152493
125.17162906528506
125.17432721241859
125.19036679672678
125.28574800050839
125.85392353290302
129.24000097931247
149.55694831832074
129.2400247560396
108.45601562042253
104.9666185915581
104.38089882499693
104.28239089657758
104.26582075161613
104.26303097866784
104.26256119344514
104.26248204380778
104.26246870612856
104.2624664578399
104.26246607878821
104.26246601486828
104.26246600408916
104.26246600227935
104.26246600202437
104.26246600227937
104.26246600408913
104.2624660148683
104.26246607878838
104.2624664578384
104.2624687061294
104.26248204383603
104.26256119336865
104.26303097971358
104.26582074487935
104.28239091090595
104.38089857875879
104.96661905568996
108.45602414055938
129.2400027412853
125.85394985684144
104.96661196540279
101.43748359518949
100.84241737892947
100.74213697416997
100.72523234090674
100.7223828972045
100.72190245066491
100.72182143795295
100.7218077746391
100.72180547002041
100.72180508123026
100.72180501563575
100.7218050045689
100.72180500271016
100.72180500244812
100.72180500271008
100.72180500456902
100.7218050156358
100.72180508123046
100.72180547001882
100.72180777463977
100.72182143797917
100.72190245058316
100.722382898108
100.72523233400987
100.74213697770858
100.84241713343789
101.43748319339265
104.96661849710694
125.8539242197327
125.28577285899978
104.38089174283732
100.84241760860755
100.24391020449335
100.14277972664122
100.12570024611033
100.1228161389117
100.12232921649871
100.12224700752411
100.12223312881903
100.12223078565239
100.12223039005163
100.12223032325858
100.1222303119825
100.12223031008742
100.1222303098202
100.12223031008739
100.12223031198246
100.12223032325868
100.12223039005174
100.12223078565079
100.12223312881936
100.12224700754929
100.12232921639344
100.12281613977186
100.12570023790555
100.14277972805577
100.24390988915353
100.84241703413579
104.38089791831679
125.28574686458471
125.19039271055519
104.2823842590383
100.74213750404768
100.14278006377657
100.04134693757175
100.02418974228867
100.02128863679039
100.02079819757154
100.02071530380042
100.02070129453257
100.02069892716769
100.02069852713272
100.02069845953935
100.0206984481198
100.0206984461994
100.02069844592833
100.02069844619943
100.02069844811983
100.0206984595394
100.02069852713281
100.02069892716598
100.02070129453266
100.02071530382301
100.0207981974553
100.02128863752579
100.02418973367043
100.04134693349219
100.14277973319842
100.74213689365259
104.28239039047656
125.19036665670389
125.17435650758406
104.26581423785606
100.72523287818451
100.12570057882414
100.02418974079937
100.0070055833594
100.0040973395451
100.00360526280292
100.00352201744911
100.00350793715718
100.00350555584494
100.00350515315313
100.00350508506169
100.00350507355034
100.00350507161325
100.00350507133976
100.0035050716132
100.00350507355034
100.00350508506169
100.00350515315326
100.00350555584312
100.00350793715687
100.00352201747033
100.00360526267286
100.00409734023616
100.00700557427088
100.02418973543945
100.12570024474022
100.72523226250918
104.26582036178883
125.17433044595278
125.1716584429904
104.26302445759721
100.72238342613413
100.12281647749168
100.02128864265279
100.0040973473043
100.00118667563201
100.000693940423
100.00061053822046
100.00059642314845
100.00059403457767
100.00059363042094
100.00059356204311
100.0005935504769
100.0005935485296
100.00059354825454
100.0005935485296
100.00059355047692
100.0005935620432
100.00059363042108
100.0005940345758
100.00059642314795
100.00061053824047
100.0006939402878
100.00118667628541
100.00409733809806
100.02128863697712
100.1228161428249
100.72238280951306
104.26303058048269
125.17163238007169
125.17120067972843
104.26255433516747
100.72190294865338
100.12232955164804
100.02079820230985
100.00360526979004
100.00069393969439
100.00020098391845
100.0001175207431
100.00010339070106
100.00010099871594
100.00010059382579
100.0001005252962
100.00010051369956
100.00010051174628
100.00010051147036
100.00010051174634
100.00010051369962
100.00010052529619
100.00010059382588
100.00010099871403
100.0001033907004
100.00011752076256
100.0002009837798
100.00069394033784
100.00360526055347
100.02079819657719
100.12232921687169
100.72190233188836
104.26256045787784
125.17117461662674
125.17112032405309
104.2624748675999
100.72182192280916
100.12224733978334
100.02071530840054
100.00352202449088
100.00061053759009
100.00011752084677
100.00003403748556
100.00001990177816
100.00001750836734
100.00001710314388
100.00001703454083
100.00001702292866
100.00001702097218
100.00001702069582
100.00001702097224
100.00001702292867
100.00001703454085
100.00001710314395
100.00001750836535
100.00001990177738
100.0000340375047
100.00011752070719
100.00061053823089
100.0035220152483
100.02071530265671
100.12224700498896
100.72182130601956
104.26248099028318
125.1710942609241
125.17110746688734
104.26246176840783
100.72180825196368
100.122233461303
100.02070129887902
100.0035079441404
100.00059642248192
100.00010339077208
100.00001990174609
100.00000576418
100.00000337024113
100.00000296488207
100.00000289624661
100.00000288462718
100.00000288266918
100.00000288239244
100.00000288266925
100.00000288462721
100.00000289624664
100.00000296488219
100.0000033702392
100.0000057641793
100.0000199017651
100.00010339063225
100.00059642312216
100.00350793489667
100.0207012931333
100.12223312650548
100.72180763517017
104.26246789108686
125.17108140375336
125.1711125426575
104.26245967681159
100.72180596707092
100.12223111807427
100.02069893145352
100.00350556282818
100.00059403391
100.0001009987881
100.00001750833621
100.00000337024217
100.00000097613129
100.00000057072289
100.00000050207454
100.00000049045191
100.0000004884932
100.00000048821644
100.00000048849321
100.00000049045195
100.00000050207451
100.00000057072296
100.00000097612937
100.00000337024142
100.00001750835527
100.00010099864814
100.0005940345501
100.00350555358423
100.02069892570744
100.1222307832762
100.72180535027671
104.26246579949249
125.17108647951716
125.1711125595358
104.26245930163996
100.72180558037356
100.12223072139489
100.02069853164882
100.0035051601343
100.00059362976083
100.0001005938999
100.00001710311456
100.00000296488483
100.00000057072455
100.00000016530022
100.00000009664724
100.00000008502336
100.0000000830644
100.00000008278742
100.00000008306438
100.00000008502334
100.0000000966472
100.00000016530021
100.00000057072263
100.000002964884
100.00001710313359
100.00010059375992
100.00059363040096
100.0035051508902
100.02069852590256
100.12223038659678
100.72180496357929
104.26246542432085
125.17108649639516
125.17110522215404
104.26245911032366
100.72180547859611
100.12223065809357
100.02069846398626
100.00350509212606
100.00059356138692
100.00010052537178
100.00001703451147
100.00000289624919
100.00000050207596
100.00000009664699
100.00000002799251
100.00000001636825
100.00000001440921
100.00000001413221
100.00000001440915
100.00000001636832
100.0000000279925
100.00000009664703
100.00000050207397
100.00000289624838
100.00001703453047
100.00010052523174
100.00059356202699
100.00350508288201
100.02069845823999
100.12223032329534
100.72180486180191
104.26246523300202
125.17107915901875
125.17110484666888
104.26245860419918
100.7218055226476
100.1222306457586
100.02069845349945
100.00350508064776
100.00059354983549
100.00010051377525
100.0000170228985
100.00000288462853
100.00000049045227
100.00000008502198
100.00000001636718
100.00000000474274
100.00000000278351
100.00000000250661
100.00000000278351
100.00000000474273
100.00000001636711
100.00000008502207
100.00000049045023
100.0000028846278
100.00001702291749
100.00010051363526
100.00059355047557
100.0035050714037
100.02069844775319
100.12223031096035
100.7218049058532
104.26246472687738
125.17107878353475
125.17110503716081
104.2624596194157
100.72180552530133
100.1222306535076
100.02069845183253
100.00350507882999
100.00059354788995
100.00010051181721
100.00001702093543
100.00000288266372
100.00000048848665
100.00000008305612
100.00000001440112
100.00000000277664
100.00000000081748
100.00000000054057
100.0000000008175
100.0000000027767
100.0000000144011
100.00000008305616
100.00000048848467
100.00000288266294
100.00001702095433
100.00010051167719
100.00059354852989
100.00350506958586
100.02069844608609
100.12223031870906
100.72180490850673
104.26246574209326
125.17107897402468
125.17111959686954
104.2624598994824
100.72180560278457
100.1222306551004
100.02069845225522
100.00350507856427
100.00059354758464
100.00010051150235
100.00001702061881
100.00000288234668
100.00000048816935
100.00000008273867
100.0000000140837
100.00000000245926
100.00000000050002
100.00000000022312
100.00000000050007
100.0000000024592
100.00000001408362
100.00000008273872
100.0000004881673
100.00000288234568
100.0000170206375
100.0001005113618
100.00059354822395
100.00350506931906
100.02069844650747
100.12223032030013
100.72180498598799
104.26246602216303
125.17109353372032
125.17111959784859
104.26245989946254
100.7218056034814
100.12223065511786
100.02069845248049
100.00350507859613
100.00059354762854
100.00010051154094
100.0000170206573
100.00000288238469
100.00000048820725
100.00000008277654
100.00000001412144
100.00000000249693
100.00000000053775
100.0000000002608
100.00000000053772
100.00000000249696
100.00000001412134
100.00000008277635
100.00000048820482
100.00000288238301
100.0000170206745
100.00010051139797
100.00059354826386
100.00350506934525
100.02069844672472
100.12223032030788
100.72180498667305
104.26246602213084
125.17109353468658
125.17110503647402
104.26245962655005
100.72180552526969
100.12223065635912
100.02069845213266
100.00350507917076
100.00059354816892
100.0001005120926
100.00001702120636
100.00000288293279
100.00000048875444
100.00000008332324
100.00000001466806
100.00000000304348
100.00000000108427
100.00000000080732
100.00000000108423
100.00000000304343
100.0000000146677
100.00000008332245
100.00000048875042
100.00000288292733
100.00001702121658
100.0001005119362
100.00059354878286
100.00350506988586
100.02069844633155
100.1222303214883
100.72180490839222
104.2624657491345
125.17107897324736
125.17110491215381
104.26245859130975
100.72180555922938
100.1222306468822
100.02069845581748
100.0035050823278
100.00059355149713
100.00010051539736
100.0000170245035
100.00000288622137
100.00000049203963
100.00000008660643
100.00000001795046
100.00000000632565
100.00000000436641
100.00000000408936
100.0000000043663
100.00000000632535
100.00000001794939
100.00000008660325
100.00000049202842
100.00000288620002
100.00001702447639
100.00010051517417
100.0005935519869
100.00350507285924
100.02069844973565
100.12223031166337
100.72180494190843
104.26246471343298
125.1710788484363
125.17110490519313
104.2624596040582
100.72180547031054
100.12223067438623
100.02069847392275
100.00350510216292
100.00059357109335
100.00010053493747
100.00001704395979
100.00000290564535
100.00000051144126
100.00000010600151
100.00000003734259
100.00000002571709
100.0000000237576
100.0000000234806
100.00000002375735
100.0000000257162
100.00000003733923
100.00000010598927
100.00000051140526
100.00000290554695
100.00001704377172
100.00010053434366
100.00059357096387
100.00350509157705
100.02069846631146
100.12223033693135
100.72180485045594
104.26246572312935
125.17107883862812
125.1711194536593
104.26245898088935
100.72180569556745
100.12223077868127
100.02069859262637
100.0035052185168
100.0005936870647
100.00010065009506
100.00001715882512
100.00000302026824
100.00000062599784
100.00000022052264
100.00000015185692
100.00000014022945
100.00000013826957
100.00000013799243
100.00000013826909
100.00000014022737
100.00000015184767
100.0000002204884
100.00000062585958
100.00000301990691
100.00001715780998
100.0001006478947
100.00059368329102
100.00350520232631
100.02069857523078
100.12223042903531
100.72180505870753
104.26246508272789
125.17109336757153
125.17110606178876
104.26246040656787
100.72180628371093
100.12223148987506
100.02069928478271
100.00350590874592
100.00059436956296
100.00010133012672
100.0000178362163
100.00000369700422
100.00000130231658
100.00000089677388
100.0000008280855
100.00000081645435
100.00000081449363
100.00000081421624
100.00000081449267
100.00000081644963
100.0000008280646
100.00000089667547
100.00000130195195
100.00000369548141
100.00001783242949
100.00010131903711
100.00059435000335
100.00350585726773
100.02069921832837
100.12223105745528
100.72180555506148
104.26246638661546
125.17107986876239
125.1711096114603
104.26246350693638
100.72181051266732
100.12223561264996
100.02070340873277
100.00350996132468
100.00059840387196
100.00010533561272
100.00002183549111
100.00000769127686
100.00000529591956
100.00000489013031
100.0000048214077
100.00000480976762
100.00000480780554
100.00000480752784
100.00000480780376
100.00000480975851
100.00000482136082
100.00000488992
100.00000529487428
100.00000768744428
100.00002181829127
100.00010529548577
100.0005982887916
100.0035097581096
100.02070300747323
100.12223476966835
100.7218091148711
104.26246884761697
125.17108261381905
125.1711333439369
104.26248841867914
100.72183507534042
100.12226036732633
100.02072752752032
100.00353398296416
100.00062211083463
100.0001289880529
100.00004542656576
100.00003127595636
100.00002887791221
100.00002847181025
100.00002840300107
100.0000283913496
100.00002838938518
100.00002838910694
100.00002838938178
100.00002839133282
100.00002840291494
100.00002847134874
100.00002887581326
100.00003126490152
100.00004538627273
100.00012879000195
100.00062169451299
100.00353275583049
100.02072571218265
100.12225643628602
100.72183045040451
104.26248867461045
125.17110236793296
125.17127983927708
104.26263463965489
100.72198430893877
100.12240419412345
100.0208714725901
100.00367450546729
100.00076222863959
100.00026833450192
100.0001847160823
100.00017053612794
100.00016813540216
100.00016772846315
100.00016765956113
100.00016764788994
100.00016764592174
100.0001676456425
100.00016764591706
100.00016764785765
100.00016765940876
100.00016772766459
100.00016813090667
100.00017051552034
100.00018459918964
100.00026791323964
100.00075991183914
100.00367020101508
100.02085875204513
100.12238766497994
100.7219523302681
104.26261176458907
125.1712134995539
125.17214125067481
104.26353443826333
100.72284154706237
100.12327574250565
100.02170619526831
100.00450757818413
100.001585362825
100.00109103168968
100.00100709273089
100.00099289218599
100.00099048351419
100.00099007588463
100.00099000681743
100.00098999511984
100.00098999315898
100.0009899928706
100.00098999313049
100.00098999508631
100.00099000653118
100.00099007453935
100.00099047628044
100.00099284912358
100.00100689422054
100.0010898000767
100.00158101394952
100.00447985005208
100.02166280686788
100.12314460556716
100.72270481169481
104.26328353366348
125.17193197547006
125.17749922324275
104.26860323507627
100.72819920334123
100.12824630883003
100.02669935301326
100.00936954559873
100.0064452377664
100.00594741928687
100.00586335766947
100.00584908348092
100.00584667045383
100.00584626152438
100.00584619231753
100.00584618067718
100.00584617861085
100.00584617842237
100.00584617864041
100.00584618030987
100.00584619214357
100.00584625910075
100.00584665889626
100.00584901994166
100.00586295363674
100.00594555853017
100.00643236939781
100.00932542974876
100.02635989742453
100.12782192585858
100.72688841755185
104.26757584421114
125.1755661389581
125.20673408586018
104.30210901168535
100.75782373162711
100.15871734348693
100.05539859305145
100.03808519881579
100.0351233711673
100.03462538876435
100.0345406662819
100.03452637429615
100.03452395307323
100.03452354370461
100.03452347384341
100.03452346188722
100.0345234615792
100.03452345979714
100.03452346009146
100.0345234627887
100.03452347030006
100.03452354331895
100.03452393322323
100.03452627863152
100.03454012985588
100.03462170533064
100.03510660915711
100.03795265067215
100.0549646937019
100.15445388082148
100.75391213447224
104.28963287905597
125.20020514330358
125.41718797942312
104.47736846020544
100.95123524691344
100.32769423891305
100.22513422636234
100.2074266988873
100.2044760563163
100.20397240215449
100.20388774139661
100.2038734329692
100.20387100824064
100.20387058108314
100.2038705197309
100.20387051576658
100.20387050055392
100.20387051943936
100.20387050692658
100.20387049343155
100.20387053284196
100.20387055308422
100.20387101431675
100.20387327171964
100.20388699076992
100.20396811422954
100.20444382374542
100.2072843037352
100.22380478559316
100.32364645797729
100.89628568474309
104.44528781454243
125.30996235634441
126.41629390021352
105.8075694102112
101.93812962781753
101.33147461762358
101.22496942168416
101.20751615801794
101.2045199255213
101.20401896973692
101.20393489954148
101.2039203232593
101.20391779995258
101.20391764329207
101.20391737294617
101.20391727164451
101.2039176018004
101.20391742000307
101.20391740645366
101.20391741299466
101.20391722002404
101.20391773561667
101.20391755531836
101.20392052127497
101.20393358337675
101.20401348834366
101.20448825100414
101.20725063318159
101.22386799657086
101.31878374156562
101.90411597556165
105.08087510252514
126.22471187904596
136.94357718726073
111.43253674179817
107.87568369871046
107.23340292809144
107.13079029462432
107.11300901973999
107.11006022630954
107.10956941748225
107.10947437169108
107.10946568613002
107.10946878275823
107.10946003517552
107.10946008543297
107.10946552114542
107.10946280521927
107.10946272643912
107.10946284824146
107.10946274660856
107.10946276708134
107.10946000482926
107.10946749138084
107.10946269878525
107.10948032460655
107.1095583365174
107.11002164721754
107.11280254768347
107.12880613823815
107.22618440701046
107.76632820281833
111.21335635811721
127.09475217800109
