# vtk DataFile Version 2.0
Unstructured Grid Example
ASCII
DATASET UNSTRUCTURED_GRID

POINTS 961 float
0.100000001 0.00499999989 0
0.0966666639 0.00499999989 0
0.0933333337 0.00499999989 0
0.0900000036 0.00499999989 0
0.086666666 0.00499999989 0
0.0833333358 0.00499999989 0
0.0799999982 0.00499999989 0
0.0766666681 0.00499999989 0
0.0733333305 0.00499999989 0
0.0700000003 0.00499999989 0
0.0666666701 0.00499999989 0
0.0633333325 0.00499999989 0
0.0599999987 0.00499999989 0
0.0566666685 0.00499999989 0
0.0533333346 0.00499999989 0
0.0500000007 0.00499999989 0
0.0466666669 0.00499999989 0
0.043333333 0.00499999989 0
0.0399999991 0.00499999989 0
0.0366666652 0.00499999989 0
0.0333333351 0.00499999989 0
0.0299999993 0.00499999989 0
0.0266666673 0.00499999989 0
0.0233333334 0.00499999989 0
0.0199999996 0.00499999989 0
0.0166666675 0.00499999989 0
0.0133333337 0.00499999989 0
0.00999999978 0.00499999989 0
0.00666666683 0.00499999989 0
0.00333333341 0.00499999989 0
0 0.00499999989 0
0.100000001 0.00166666671 0
0.0966666639 0.00166666671 0
0.0933333337 0.00166666671 0
0.0900000036 0.00166666671 0
0.086666666 0.00166666671 0
0.0833333358 0.00166666671 0
0.0799999982 0.00166666671 0
0.0766666681 0.00166666671 0
0.0733333305 0.00166666671 0
0.0700000003 0.00166666671 0
0.0666666701 0.00166666671 0
0.0633333325 0.00166666671 0
0.0599999987 0.00166666671 0
0.0566666685 0.00166666671 0
0.0533333346 0.00166666671 0
0.0500000007 0.00166666671 0
0.0466666669 0.00166666671 0
0.043333333 0.00166666671 0
0.0399999991 0.00166666671 0
0.0366666652 0.00166666671 0
0.0333333351 0.00166666671 0
0.0299999993 0.00166666671 0
0.0266666673 0.00166666671 0
0.0233333334 0.00166666671 0
0.0199999996 0.00166666671 0
0.0166666675 0.00166666671 0
0.0133333337 0.00166666671 0
0.00999999978 0.00166666671 0
0.00666666683 0.00166666671 0
0.00333333341 0.00166666671 0
0 0.00166666671 0
0.100000001 -0.00166666671 0
0.0966666639 -0.00166666671 0
0.0933333337 -0.00166666671 0
0.0900000036 -0.00166666671 0
0.086666666 -0.00166666671 0
0.0833333358 -0.00166666671 0
0.0799999982 -0.00166666671 0
0.0766666681 -0.00166666671 0
0.0733333305 -0.00166666671 0
0.0700000003 -0.00166666671 0
0.0666666701 -0.00166666671 0
0.0633333325 -0.00166666671 0
0.0599999987 -0.00166666671 0
0.0566666685 -0.00166666671 0
0.0533333346 -0.00166666671 0
0.0500000007 -0.00166666671 0
0.0466666669 -0.00166666671 0
0.043333333 -0.00166666671 0
0.0399999991 -0.00166666671 0
0.0366666652 -0.00166666671 0
0.0333333351 -0.00166666671 0
0.0299999993 -0.00166666671 0
0.0266666673 -0.00166666671 0
0.0233333334 -0.00166666671 0
0.0199999996 -0.00166666671 0
0.0166666675 -0.00166666671 0
0.0133333337 -0.00166666671 0
0.00999999978 -0.00166666671 0
0.00666666683 -0.00166666671 0
0.00333333341 -0.00166666671 0
0 -0.00166666671 0
0.100000001 -0.00499999989 0
0.0966666639 -0.00499999989 0
0.0933333337 -0.00499999989 0
0.0900000036 -0.00499999989 0
0.086666666 -0.00499999989 0
0.0833333358 -0.00499999989 0
0.0799999982 -0.00499999989 0
0.0766666681 -0.00499999989 0
0.0733333305 -0.00499999989 0
0.0700000003 -0.00499999989 0
0.0666666701 -0.00499999989 0
0.0633333325 -0.00499999989 0
0.0599999987 -0.00499999989 0
0.0566666685 -0.00499999989 0
0.0533333346 -0.00499999989 0
0.0500000007 -0.00499999989 0
0.0466666669 -0.00499999989 0
0.043333333 -0.00499999989 0
0.0399999991 -0.00499999989 0
0.0366666652 -0.00499999989 0
0.0333333351 -0.00499999989 0
0.0299999993 -0.00499999989 0
0.0266666673 -0.00499999989 0
0.0233333334 -0.00499999989 0
0.0199999996 -0.00499999989 0
0.0166666675 -0.00499999989 0
0.0133333337 -0.00499999989 0
0.00999999978 -0.00499999989 0
0.00666666683 -0.00499999989 0
0.00333333341 -0.00499999989 0
0 -0.00499999989 0
0.100000001 -0.00833333377 0
0.0966666639 -0.00833333377 0
0.0933333337 -0.00833333377 0
0.0900000036 -0.00833333377 0
0.086666666 -0.00833333377 0
0.0833333358 -0.00833333377 0
0.0799999982 -0.00833333377 0
0.0766666681 -0.00833333377 0
0.0733333305 -0.00833333377 0
0.0700000003 -0.00833333377 0
0.0666666701 -0.00833333377 0
0.0633333325 -0.00833333377 0
0.0599999987 -0.00833333377 0
0.0566666685 -0.00833333377 0
0.0533333346 -0.00833333377 0
0.0500000007 -0.00833333377 0
0.0466666669 -0.00833333377 0
0.043333333 -0.00833333377 0
0.0399999991 -0.00833333377 0
0.0366666652 -0.00833333377 0
0.0333333351 -0.00833333377 0
0.0299999993 -0.00833333377 0
0.0266666673 -0.00833333377 0
0.0233333334 -0.00833333377 0
0.0199999996 -0.00833333377 0
0.0166666675 -0.00833333377 0
0.0133333337 -0.00833333377 0
0.00999999978 -0.00833333377 0
0.00666666683 -0.00833333377 0
0.00333333341 -0.00833333377 0
0 -0.00833333377 0
0.100000001 -0.0116666667 0
0.0966666639 -0.0116666667 0
0.0933333337 -0.0116666667 0
0.0900000036 -0.0116666667 0
0.086666666 -0.0116666667 0
0.0833333358 -0.0116666667 0
0.0799999982 -0.0116666667 0
0.0766666681 -0.0116666667 0
0.0733333305 -0.0116666667 0
0.0700000003 -0.0116666667 0
0.0666666701 -0.0116666667 0
0.0633333325 -0.0116666667 0
0.0599999987 -0.0116666667 0
0.0566666685 -0.0116666667 0
0.0533333346 -0.0116666667 0
0.0500000007 -0.0116666667 0
0.0466666669 -0.0116666667 0
0.043333333 -0.0116666667 0
0.0399999991 -0.0116666667 0
0.0366666652 -0.0116666667 0
0.0333333351 -0.0116666667 0
0.0299999993 -0.0116666667 0
0.0266666673 -0.0116666667 0
0.0233333334 -0.0116666667 0
0.0199999996 -0.0116666667 0
0.0166666675 -0.0116666667 0
0.0133333337 -0.0116666667 0
0.00999999978 -0.0116666667 0
0.00666666683 -0.0116666667 0
0.00333333341 -0.0116666667 0
0 -0.0116666667 0
0.100000001 -0.0149999997 0
0.0966666639 -0.0149999997 0
0.0933333337 -0.0149999997 0
0.0900000036 -0.0149999997 0
0.086666666 -0.0149999997 0
0.0833333358 -0.0149999997 0
0.0799999982 -0.0149999997 0
0.0766666681 -0.0149999997 0
0.0733333305 -0.0149999997 0
0.0700000003 -0.0149999997 0
0.0666666701 -0.0149999997 0
0.0633333325 -0.0149999997 0
0.0599999987 -0.0149999997 0
0.0566666685 -0.0149999997 0
0.0533333346 -0.0149999997 0
0.0500000007 -0.0149999997 0
0.0466666669 -0.0149999997 0
0.043333333 -0.0149999997 0
0.0399999991 -0.0149999997 0
0.0366666652 -0.0149999997 0
0.0333333351 -0.0149999997 0
0.0299999993 -0.0149999997 0
0.0266666673 -0.0149999997 0
0.0233333334 -0.0149999997 0
0.0199999996 -0.0149999997 0
0.0166666675 -0.0149999997 0
0.0133333337 -0.0149999997 0
0.00999999978 -0.0149999997 0
0.00666666683 -0.0149999997 0
0.00333333341 -0.0149999997 0
0 -0.0149999997 0
0.100000001 -0.0183333326 0
0.0966666639 -0.0183333326 0
0.0933333337 -0.0183333326 0
0.0900000036 -0.0183333326 0
0.086666666 -0.0183333326 0
0.0833333358 -0.0183333326 0
0.0799999982 -0.0183333326 0
0.0766666681 -0.0183333326 0
0.0733333305 -0.0183333326 0
0.0700000003 -0.0183333326 0
0.0666666701 -0.0183333326 0
0.0633333325 -0.0183333326 0
0.0599999987 -0.0183333326 0
0.0566666685 -0.0183333326 0
0.0533333346 -0.0183333326 0
0.0500000007 -0.0183333326 0
0.0466666669 -0.0183333326 0
0.043333333 -0.0183333326 0
0.0399999991 -0.0183333326 0
0.0366666652 -0.0183333326 0
0.0333333351 -0.0183333326 0
0.0299999993 -0.0183333326 0
0.0266666673 -0.0183333326 0
0.0233333334 -0.0183333326 0
0.0199999996 -0.0183333326 0
0.0166666675 -0.0183333326 0
0.0133333337 -0.0183333326 0
0.00999999978 -0.0183333326 0
0.00666666683 -0.0183333326 0
0.00333333341 -0.0183333326 0
0 -0.0183333326 0
0.100000001 -0.0216666665 0
0.0966666639 -0.0216666665 0
0.0933333337 -0.0216666665 0
0.0900000036 -0.0216666665 0
0.086666666 -0.0216666665 0
0.0833333358 -0.0216666665 0
0.0799999982 -0.0216666665 0
0.0766666681 -0.0216666665 0
0.0733333305 -0.0216666665 0
0.0700000003 -0.0216666665 0
0.0666666701 -0.0216666665 0
0.0633333325 -0.0216666665 0
0.0599999987 -0.0216666665 0
0.0566666685 -0.0216666665 0
0.0533333346 -0.0216666665 0
0.0500000007 -0.0216666665 0
0.0466666669 -0.0216666665 0
0.043333333 -0.0216666665 0
0.0399999991 -0.0216666665 0
0.0366666652 -0.0216666665 0
0.0333333351 -0.0216666665 0
0.0299999993 -0.0216666665 0
0.0266666673 -0.0216666665 0
0.0233333334 -0.0216666665 0
0.0199999996 -0.0216666665 0
0.0166666675 -0.0216666665 0
0.0133333337 -0.0216666665 0
0.00999999978 -0.0216666665 0
0.00666666683 -0.0216666665 0
0.00333333341 -0.0216666665 0
0 -0.0216666665 0
0.100000001 -0.0250000004 0
0.0966666639 -0.0250000004 0
0.0933333337 -0.0250000004 0
0.0900000036 -0.0250000004 0
0.086666666 -0.0250000004 0
0.0833333358 -0.0250000004 0
0.0799999982 -0.0250000004 0
0.0766666681 -0.0250000004 0
0.0733333305 -0.0250000004 0
0.0700000003 -0.0250000004 0
0.0666666701 -0.0250000004 0
0.0633333325 -0.0250000004 0
0.0599999987 -0.0250000004 0
0.0566666685 -0.0250000004 0
0.0533333346 -0.0250000004 0
0.0500000007 -0.0250000004 0
0.0466666669 -0.0250000004 0
0.043333333 -0.0250000004 0
0.0399999991 -0.0250000004 0
0.0366666652 -0.0250000004 0
0.0333333351 -0.0250000004 0
0.0299999993 -0.0250000004 0
0.0266666673 -0.0250000004 0
0.0233333334 -0.0250000004 0
0.0199999996 -0.0250000004 0
0.0166666675 -0.0250000004 0
0.0133333337 -0.0250000004 0
0.00999999978 -0.0250000004 0
0.00666666683 -0.0250000004 0
0.00333333341 -0.0250000004 0
0 -0.0250000004 0
0.100000001 -0.0283333343 0
0.0966666639 -0.0283333343 0
0.0933333337 -0.0283333343 0
0.0900000036 -0.0283333343 0
0.086666666 -0.0283333343 0
0.0833333358 -0.0283333343 0
0.0799999982 -0.0283333343 0
0.0766666681 -0.0283333343 0
0.0733333305 -0.0283333343 0
0.0700000003 -0.0283333343 0
0.0666666701 -0.0283333343 0
0.0633333325 -0.0283333343 0
0.0599999987 -0.0283333343 0
0.0566666685 -0.0283333343 0
0.0533333346 -0.0283333343 0
0.0500000007 -0.0283333343 0
0.0466666669 -0.0283333343 0
0.043333333 -0.0283333343 0
0.0399999991 -0.0283333343 0
0.0366666652 -0.0283333343 0
0.0333333351 -0.0283333343 0
0.0299999993 -0.0283333343 0
0.0266666673 -0.0283333343 0
0.0233333334 -0.0283333343 0
0.0199999996 -0.0283333343 0
0.0166666675 -0.0283333343 0
0.0133333337 -0.0283333343 0
0.00999999978 -0.0283333343 0
0.00666666683 -0.0283333343 0
0.00333333341 -0.0283333343 0
0 -0.0283333343 0
0.100000001 -0.0316666663 0
[...]
POINT_DATA 961
SCALARS Temp float 1
LOOKUP_TABLE default
312.4512302135496
280.85011123149053
256.87296352805663
239.75665943597699
228.27907775994365
221.05212925500066
216.77635817584638
214.39584191800554
213.14602302133702
212.52565794143663
212.2337117685552
212.10307162879016
212.04734791147945
212.0247182672769
212.01622403142647
212.0140830797273
212.01622403106694
212.0247182661927
212.04734794865217
212.1030717222579
212.23371153927758
212.52565814418801
213.14602393277968
214.39584179492533
216.77636146364995
221.05212581663886
228.27908195510363
239.75665059139666
256.87296870277476
280.850154270544
312.45122998680444
280.85017048752223
248.12356469733498
223.29177547848832
205.5647448940372
193.67709592779866
186.19154764125392
181.76251167839052
179.2965036452288
178.00170903321728
177.35897258644337
177.0564756597198
176.92110399929913
176.86335772044174
176.83990498571626
176.8311012189738
176.82888215592203
176.83110121859062
176.8399049845601
176.8633577588769
176.9211040959276
177.05647542158061
177.35897279515237
178.00170997430945
179.29650351045086
181.762515067701
186.19154404134588
193.67710018273002
205.56473543347508
223.29178036563954
248.12359631829844
280.85015774679334
256.87297297474373
223.2917495242806
197.80964781299863
179.61659859960102
167.4149623291377
159.73059903825833
155.18319058678918
152.6508238812096
151.32093401546803
150.66064473630863
150.34982308526838
150.2106971117829
150.15133702902142
150.127224009649
150.11817074828917
150.11588852877563
150.11817074786578
150.12722400836964
150.15133706829033
150.2106972104738
150.34982283900507
150.66064494706373
151.32093497368626
152.65082372378603
155.18319402497215
159.73059524928354
167.4149664780906
179.61658837768934
197.80965084571787
223.29178004020366
256.8729704126814
239.75665217278612
205.5647013657329
179.61658425005672
161.0883419191604
148.6598213000833
140.83101790303573
136.1970868248372
133.6158942278018
132.2600000558161
131.58660992429682
131.26952884538872
131.12755895629513
131.06696741618893
131.0423469827687
131.03310078966362
131.03076953418832
131.0331007891888
131.0423469813326
131.06696745593254
131.1275590561424
131.2695285920099
131.58661013433195
132.26000102183812
133.61589404340657
136.1970902787938
140.83101393937005
148.65982532094463
161.08833107808633
179.61658691634506
205.5647334952472
239.75665075921512
228.2790830056529
193.6770653755091
167.41496229937113
148.6598365531607
136.07686573773265
128.1490750802772
123.45539986962072
120.84021484471884
119.46605823009469
118.78338409179125
118.46182623450999
118.31780350720211
118.25631492033827
118.23132161164106
118.22193254013271
118.21956478854435
118.22193253960265
118.2313216100387
118.25631496029862
118.31780360757183
118.46182597529913
118.7833842997742
119.46605919855925
120.84021463600787
123.4554033264479
128.1490709903658
136.07686968670126
148.65982545754594
167.4149651049576
193.67709828803487
228.27908216379493
221.0521279666388
186.19151016225598
159.7305924034385
140.83102676698218
128.14906859081177
120.15733562113519
115.42472356641508
112.78716895116054
111.40086979241094
110.71195631581121
110.38735675188754
110.24192383324021
110.17981229027981
110.15455731684004
110.14506705165047
110.14267329782983
110.14506705106871
110.15455731508406
110.17981233030194
110.24192393376654
110.38735648826497
110.71195652159926
111.40087076119846
112.78716872488351
115.42472702552332
120.15733145836967
128.14907253221017
140.8310155935393
159.73059534123368
186.19154355420315
221.05212739319893
216.77636193821235
181.7624793180762
155.18318945792828
136.19710148524516
123.45539925098146
115.42472954495926
110.66816806171344
108.0167020206878
106.62276238187816
105.92987454296753
105.60331300729233
105.456958911622
105.39443530409105
105.36900514616342
105.35944640685119
105.35703493764986
105.35944640622608
105.36900514428136
105.39443534410243
105.45695901214437
105.60331274061556
105.92987474708188
106.62276335070615
108.01670178409519
110.6681715257952
115.42472534865078
123.45540321114352
136.19709029316672
155.18319249409214
181.76251299116078
216.7763615121737
214.39584263130368
179.29646805666889
152.65081956568363
133.61590573752366
120.84021103679588
112.78717175570202
108.01669882081457
105.35705370578029
103.95856332575217
103.26327594993184
102.93551320156264
102.78858708723673
102.72580397767696
102.70026198745903
102.69065901017689
102.68823600788302
102.69065900951911
102.70026198548436
102.72580401765775
102.7885871877169
102.93551293296007
103.2632761530567
103.95856429494043
105.35705346434035
108.0167022912163
112.78716754714138
120.84021501858255
133.6158945469382
152.65082266560148
179.2965018900089
214.39584228766938
213.14602447863774
178.00167417707868
151.3209305164799
132.26001244761258
119.46605531818122
111.4008735268015
106.62276011526987
103.95856427004345
102.55750635065014
101.86084511581294
101.53238408729312
101.38512027699159
101.32218158685698
101.29657154087782
101.28694128597131
101.28451111227447
101.28694128529114
101.29657153884179
101.32218162681238
101.38512037744323
101.5323838175878
101.86084531849595
102.55750732045507
103.95856402693862
106.62276359137198
111.40086931528725
119.46605931670427
132.26000126313645
151.32093365452658
178.0017080977166
213.1460241804174
212.52565829828373
177.358936570595
150.66064007706484
131.5866211571629
118.78338000625735
110.71195888021963
105.92987110010358
103.26327571928103
101.86084393841566
101.16343604443996
100.83458933322481
100.68713589509855
100.62410838047906
100.5984588495284
100.58881254248637
100.58637811035564
100.58881254179241
100.59845884745572
100.624108420421
100.68713599554462
100.83458906294736
101.16343624700689
101.86084490886458
103.2632754759526
105.9298745803819
110.71195466898071
118.78338401560993
131.58660997816256
150.66064323635712
177.35897053648242
212.5256580241546
212.23371185757776
177.0564393569512
150.34981814555843
131.26953980344243
118.4618218708166
110.38735904270062
105.60330928977676
102.93551269831762
101.53238263693824
100.83458906077023
100.50553973302527
100.35798492990723
100.29490909572385
100.26923771607929
100.25958239231917
100.2571455452718
100.25958239161747
100.26923771398701
100.29490913566185
100.35798503036268
100.50553946248024
100.83458926336425
101.5323836079054
102.93551245523034
105.60331277270969
110.38735483241139
118.46182588641007
131.26952862811203
150.34982131594165
177.0564733451159
212.23371159562984
212.10307195527972
176.92106793832173
150.21069242692778
131.12757017946996
118.31779941270689
110.24192639931579
105.45695547154959
102.7885868641479
101.3851191076832
100.68713590455415
100.35798521215382
100.21037878023594
100.14727788371637
100.12159496871476
100.11193480948499
100.10949665452365
100.1119348087793
100.12159496661293
100.14727792365579
100.21037888070559
100.35798494149685
100.68713610721242
101.38512007900185
102.78858662134651
105.45695895599732
110.24192218981756
118.3178034315908
131.12755900625177
150.2106956027573
176.92110193690834
212.10307169918184
212.04734819497077
176.86332161306638
150.15133229918683
131.06697859564392
118.25631078161275
110.17981481325248
105.39443182090724
102.72580371212061
101.32218037516238
100.62410834777677
100.29490933588349
100.14727784158464
100.08416455193495
100.05847582870842
100.04881319574841
100.046374364963
100.04881319504086
100.05847582660253
100.0841645918773
100.14727794206692
100.29490906518535
100.62410855049123
101.32218134669078
102.72580346952536
105.39443530614656
110.17981060424756
118.25631480210744
131.0669674235203
150.15133547754147
176.8633556162921
212.04734794154075
212.0247185172896
176.8398688428905
150.12721924446436
131.04235812702473
118.23131743723798
110.15455980443045
105.36900162748545
102.70026168662653
101.29657029391389
100.598458781646
100.2692379210867
100.12159489140872
100.05847579353335
100.03278429963879
100.02312046823576
100.02068130684957
100.02312046752762
100.0327842975315
100.05847583347852
100.1215949919
100.26923765037627
100.59845898439778
101.29657126555553
102.70026144415257
105.36900511310816
110.15455559569051
118.23132145847165
131.04234695542488
150.12722242392837
176.83990284808215
212.02471826501727
212.01622428459538
176.83106507913473
150.11816598659033
131.03311193782184
118.2219283697172
110.14506954353676
105.35944289256075
102.69065871390949
101.2869400436339
100.58881247930299
100.25958260205836
100.11193473691328
100.04881316531352
100.02312047297895
100.01345611616256
100.01101680861868
100.01345611545418
100.02312047087135
100.04881320526053
100.11193483740988
100.25958233134588
100.58881268207577
101.28694101533077
102.69065847149874
105.3594463783555
110.14506533492754
118.22193239126908
131.0331007664608
150.11816916651708
176.83109908511142
212.016224032802
212.01408333549946
176.8288460187144
150.1158837699021
131.03078068534018
118.21956062119975
110.14267579291251
105.35703142661615
102.68823571494495
101.28450987330132
100.58637805056723
100.25714575842163
100.10949658536708
100.04637433794662
100.02068131501285
100.01101681203919
100.00857746362753
100.01101681133083
100.02068131290534
100.04637437789448
100.10949668586606
100.25714548771072
100.58637825334995
101.28451084502096
102.68823547256483
105.35703491247753
110.14267158436918
118.2195646428766
131.03076951409443
150.1158869500098
176.82888002495835
212.01408308389585
212.01622428590028
176.83106508049838
150.11816598802392
131.03311193933098
118.22192837130025
110.14506954518596
105.35944289426337
102.69065871565147
101.28694004540256
100.58881248108804
100.25958260385251
100.11193473871211
100.0488131671145
100.02312047478075
100.01345611796464
100.01101681042086
100.01345611725631
100.02312047267333
100.04881320706217
100.11193483921096
100.25958233314587
100.58881268387357
101.28694101712479
102.69065847328652
105.3594463801331
110.14506533669004
118.22193239300984
131.03310076817212
150.11816916819012
176.83109908673646
212.0162240343694
212.02471852070715
176.83986884646677
150.12721924823768
131.04235813101522
118.23131744144254
110.15455980882446
105.36900163203082
102.7002616912815
101.29657029864092
100.59845878641589
100.26923792587965
100.12159489621283
100.0584757983422
100.0327843044494
100.02312047304687
100.02068131166062
100.02312047233852
100.03278430234224
100.05847583828846
100.12159499670857
100.26923765518212
100.59845898919822
101.2965712703463
102.70026144892704
105.36900511785613
110.15455560039831
118.23132146312182
131.04234695999642
150.12722242839737
176.83990285242302
212.02471826920382
212.0473482034493
176.86332162194648
150.1513323085745
131.06697860559345
118.25631079211122
110.1798148242289
105.39443183225626
102.72580372373088
101.32218038693746
100.62410835964555
100.29490934779955
100.1472778535219
100.08416456388039
100.05847584065621
100.04881320769655
100.04637437691072
100.04881320698834
100.05847583854933
100.08416460382277
100.14727795400952
100.29490907712196
100.62410856241621
101.32218135859394
102.72580348139053
105.39443531794946
110.17981061595403
118.25631481367388
131.06696743489363
150.15133548866143
176.8633556270944
212.0473479519591
212.10307197800066
176.92106796210746
150.21069245203913
131.12757020602362
118.31779944063994
110.24192642841656
105.45695550153023
102.78858689471984
101.38511913860994
100.68713593566996
100.35798524335831
100.21037881147595
100.14727791496753
100.12159499996802
100.11193484073739
100.10949668577486
100.11193484002943
100.12159499786164
100.14727795490167
100.21037891194558
100.35798497272401
100.68713613841331
101.38512011015268
102.78858665240767
105.45695898690762
110.24192222049005
118.31780346191078
131.12755903607894
150.2106956319308
176.92110196525488
212.1030717265233
212.23371202147752
177.0564395273807
150.34981832233305
131.26953998604762
118.46182205837222
110.38735923408952
105.60330948385437
102.9355128940968
101.53238283368636
100.83458925801256
100.50553993049157
100.35798512746183
100.2949092933072
100.26923791366916
100.25958258990832
100.25714574285853
100.25958258920073
100.26923791156379
100.29490933322461
100.35798522789459
100.50553965994645
100.8345894606975
101.53238380498338
102.93551265184443
105.60331296852821
110.38735502694266
118.46182607897447
131.2695288178337
150.34982150176617
177.0564735258546
212.23371177002517
212.52565816998123
177.35893643910526
150.6606399458689
131.5866210285759
118.7833798811594
110.71195875833459
105.929870980559
103.26327560112813
101.86084382092741
101.16343592718165
100.83458921599271
100.68713577782543
100.62410826315912
100.59845873217454
100.58881242511266
100.58637799297213
100.58881242440572
100.59845873007112
100.62410830304454
100.68713587818627
100.83458894562423
101.1634361297485
101.86084479171937
103.26327535899843
105.92987446374337
110.71195455285594
118.78338390030925
131.58660986415134
150.6606431242869
177.35897042718506
212.52565791858578
213.14602517945292
178.00167490651293
151.32093127474104
132.2600132325326
119.46605612514645
111.4008743498821
106.6227609487187
103.9585651093471
102.55750719284065
101.86084595922735
101.53238493113379
101.38512112093484
101.32218243079816
101.29657238479619
101.28694212987044
101.28451195616023
101.28694212916477
101.29657238269624
101.32218247062539
101.38512122116204
101.53238466109846
101.86084616156734
102.5575081626455
103.95856486745815
106.62276442890425
111.40087014779962
119.46606014129857
132.26000207600083
151.32093445102603
178.0017088726145
213.1460249281831
214.39584209485272
179.2964675086394
152.6508190229896
133.6159052096202
120.840210524997
112.7871712561036
108.01669832811461
105.35705321581496
103.95856283619506
103.26327545988572
102.93551271089169
102.78858659608414
102.7258034862238
102.70026149584146
102.69065851847834
102.68823551614898
102.69065851777474
102.70026149374722
102.72580352594957
102.788586696075
102.93551244145416
103.26327566181169
103.95856380416735
105.3570529743749
108.0167018025698
112.78716706058216
120.84021453528001
133.6158940686811
152.65082219502492
179.29650143067676
214.3958418438476
216.7763654163502
181.762482938466
155.18319321998686
136.19710537247312
123.45540323352694
115.42473358947322
110.66817214074979
108.01670611626024
106.62276648424033
105.92987864761658
105.60331711246187
105.45696301676114
105.39443940910003
105.36900925106926
105.35945051169442
105.3570390424547
105.35945051099424
105.36900924898481
105.3944394486576
105.45696311635356
105.60331684404397
105.92987884882483
106.62276744898452
108.01670587561395
110.66817560483136
115.42472940595421
123.45540723293527
136.1970942606766
155.18319638401408
181.76251677696422
216.77636516587037
221.0521291902889
186.19151147047538
159.7305938453247
140.83102834538437
128.14907026948973
120.15733735518572
115.4247253225761
112.78717071249748
111.40087155258901
110.7119580734671
110.38735850743682
110.24192558743508
110.17981404372145
110.15455906990331
110.14506880453784
110.14267505063948
110.14506880384268
110.15455906783366
110.17981408301353
110.2419256863897
110.38735824067169
110.71195827349456
111.40087251194443
112.78717047318094
115.42472876889482
120.15733319242014
128.14907424986689
140.83101728500625
159.7305969951117
186.19154515958112
221.05212894078656
228.27907741145316
193.67705967710353
167.41495668224482
148.65983104935947
136.07686029470892
128.14906963521736
123.45539439848899
120.84020934708705
119.46605271276827
118.7833785619762
118.46182069758551
118.3177979665598
118.25630937788652
118.23131606836358
118.2219269965022
118.21955924478002
118.22192699581481
118.23131606631574
118.2563094167791
118.31779806454242
118.46182043336567
118.7833787601616
119.46605366360346
120.8402091098795
123.45539781606946
128.14906550632693
136.07686424367745
148.6598200744747
167.41495980818246
193.677093114715
228.27907716365505
239.75665889787075
205.56470864980838
179.61659226997037
161.08835054417452
148.65983015972049
140.83102682246485
136.1970957502826
133.61590314384117
132.2600089611762
131.58661882171714
131.26953773788995
131.12756784608607
131.06697630461423
131.04235587055388
131.0331096771645
131.0307784215621
131.03310967648753
131.0423558685371
131.06697634293408
131.12756794265985
131.26953747739452
131.58661901717636
132.26000989925387
133.61590290979942
136.19709912395703
140.83102274573432
148.65983405985156
161.08833970310036
179.61659535833616
205.56474168942245
239.7566586528507
256.8729631871955
223.29173988920925
197.80964003132482
179.61659112345043
167.41495464843368
159.73059118117644
155.18318260374488
152.6508158183641
151.3209259057086
150.66063660076267
150.3498149364089
150.21068895644473
150.15132887070186
150.12721585002848
150.11816258813232
150.11588036841914
150.1181625874696
150.12721584805362
150.1513289082384
150.2106890510733
150.34981468109567
150.66063679239204
151.32092682568853
152.65081558882292
155.18318591406444
159.73058718020906
167.4149584770347
179.6165804794602
197.80964306404343
223.29177233708543
256.8729629464069
280.8501827488413
248.1235911543347
223.29180467970835
205.56477350477587
193.6771244624843
186.19157614419174
181.7625401663368
179.29653212155114
178.00173750046523
177.35900104735015
177.05650411669504
176.9211324540774
176.86338617409604
176.83993343883495
176.83112967184528
176.82891060866203
176.83112967120084
176.8399334369144
176.86338621060918
176.9211325461453
177.0565038682468
177.3590012338665
178.00173839609374
179.2965318980759
181.76254339023305
186.1915722471242
193.6771281923289
205.5647631341111
223.29180763490245
248.1236227752915
280.85018251407814
312.45123008685954
280.8501243858039
256.872965859506
239.75666054050035
228.27907825262676
221.05212945978323
216.77635822246347
214.39584187623666
213.14602293089743
212.5256578252026
212.23371163929048
212.10307149327267
212.04734777311225
212.02471812767456
212.0162238913149
212.01408293941813
212.0162238906931
212.02471812582164
212.04734780834545
212.1030715821198
212.23371139951715
212.52565800522052
213.14602379538962
214.39584166052694
216.77636133470816
221.05212569748323
228.27908185372567
239.75665052736636
256.8729687129461
280.8501549188909
312.45122986013354
