# vtk DataFile Version 2.0
Unstructured Grid Example
ASCII
DATASET UNSTRUCTURED_GRID

POINTS 961 float
0.100000001 0.00499999989 0
0.0966666639 0.00499999989 0
0.0933333337 0.00499999989 0
0.0900000036 0.00499999989 0
0.086666666 0.00499999989 0
0.0833333358 0.00499999989 0
0.0799999982 0.00499999989 0
0.0766666681 0.00499999989 0
0.0733333305 0.00499999989 0
0.0700000003 0.00499999989 0
0.0666666701 0.00499999989 0
0.0633333325 0.00499999989 0
0.0599999987 0.00499999989 0
0.0566666685 0.00499999989 0
0.0533333346 0.00499999989 0
0.0500000007 0.00499999989 0
0.0466666669 0.00499999989 0
0.043333333 0.00499999989 0
0.0399999991 0.00499999989 0
0.0366666652 0.00499999989 0
0.0333333351 0.00499999989 0
0.0299999993 0.00499999989 0
0.0266666673 0.00499999989 0
0.0233333334 0.00499999989 0
0.0199999996 0.00499999989 0
0.0166666675 0.00499999989 0
0.0133333337 0.00499999989 0
0.00999999978 0.00499999989 0
0.00666666683 0.00499999989 0
0.00333333341 0.00499999989 0
0 0.00499999989 0
0.100000001 0.00166666671 0
0.0966666639 0.00166666671 0
0.0933333337 0.00166666671 0
0.0900000036 0.00166666671 0
0.086666666 0.00166666671 0
0.0833333358 0.00166666671 0
0.0799999982 0.00166666671 0
0.0766666681 0.00166666671 0
0.0733333305 0.00166666671 0
0.0700000003 0.00166666671 0
0.0666666701 0.00166666671 0
0.0633333325 0.00166666671 0
0.0599999987 0.00166666671 0
0.0566666685 0.00166666671 0
0.0533333346 0.00166666671 0
0.0500000007 0.00166666671 0
0.0466666669 0.00166666671 0
0.043333333 0.00166666671 0
0.0399999991 0.00166666671 0
0.0366666652 0.00166666671 0
0.0333333351 0.00166666671 0
0.0299999993 0.00166666671 0
0.0266666673 0.00166666671 0
0.0233333334 0.00166666671 0
0.0199999996 0.00166666671 0
0.0166666675 0.00166666671 0
0.0133333337 0.00166666671 0
0.00999999978 0.00166666671 0
0.00666666683 0.00166666671 0
0.00333333341 0.00166666671 0
0 0.00166666671 0
0.100000001 -0.00166666671 0
0.0966666639 -0.00166666671 0
0.0933333337 -0.00166666671 0
0.0900000036 -0.00166666671 0
0.086666666 -0.00166666671 0
0.0833333358 -0.00166666671 0
0.0799999982 -0.00166666671 0
0.0766666681 -0.00166666671 0
0.0733333305 -0.00166666671 0
0.0700000003 -0.00166666671 0
0.0666666701 -0.00166666671 0
0.0633333325 -0.00166666671 0
0.0599999987 -0.00166666671 0
0.0566666685 -0.00166666671 0
0.0533333346 -0.00166666671 0
0.0500000007 -0.00166666671 0
0.0466666669 -0.00166666671 0
0.043333333 -0.00166666671 0
0.0399999991 -0.00166666671 0
0.0366666652 -0.00166666671 0
0.0333333351 -0.00166666671 0
0.0299999993 -0.00166666671 0
0.0266666673 -0.00166666671 0
0.0233333334 -0.00166666671 0
0.0199999996 -0.00166666671 0
0.0166666675 -0.00166666671 0
0.0133333337 -0.00166666671 0
0.00999999978 -0.00166666671 0
0.00666666683 -0.00166666671 0
0.00333333341 -0.00166666671 0
0 -0.00166666671 0
0.100000001 -0.00499999989 0
0.0966666639 -0.00499999989 0
0.0933333337 -0.00499999989 0
0.0900000036 -0.00499999989 0
0.086666666 -0.00499999989 0
0.0833333358 -0.00499999989 0
0.0799999982 -0.00499999989 0
0.0766666681 -0.00499999989 0
0.0733333305 -0.00499999989 0
0.0700000003 -0.00499999989 0
0.0666666701 -0.00499999989 0
0.0633333325 -0.00499999989 0
0.0599999987 -0.00499999989 0
0.0566666685 -0.00499999989 0
0.0533333346 -0.00499999989 0
0.0500000007 -0.00499999989 0
0.0466666669 -0.00499999989 0
0.043333333 -0.00499999989 0
0.0399999991 -0.00499999989 0
0.0366666652 -0.00499999989 0
0.0333333351 -0.00499999989 0
0.0299999993 -0.00499999989 0
0.0266666673 -0.00499999989 0
0.0233333334 -0.00499999989 0
0.0199999996 -0.00499999989 0
0.0166666675 -0.00499999989 0
0.0133333337 -0.00499999989 0
0.00999999978 -0.00499999989 0
0.00666666683 -0.00499999989 0
0.00333333341 -0.00499999989 0
0 -0.00499999989 0
0.100000001 -0.00833333377 0
0.0966666639 -0.00833333377 0
0.0933333337 -0.00833333377 0
0.0900000036 -0.00833333377 0
0.086666666 -0.00833333377 0
0.0833333358 -0.00833333377 0
0.0799999982 -0.00833333377 0
0.0766666681 -0.00833333377 0
0.0733333305 -0.00833333377 0
0.0700000003 -0.00833333377 0
0.0666666701 -0.00833333377 0
0.0633333325 -0.00833333377 0
0.0599999987 -0.00833333377 0
0.0566666685 -0.00833333377 0
0.0533333346 -0.00833333377 0
0.0500000007 -0.00833333377 0
0.0466666669 -0.00833333377 0
0.043333333 -0.00833333377 0
0.0399999991 -0.00833333377 0
0.0366666652 -0.00833333377 0
0.0333333351 -0.00833333377 0
0.0299999993 -0.00833333377 0
0.0266666673 -0.00833333377 0
0.0233333334 -0.00833333377 0
0.0199999996 -0.00833333377 0
0.0166666675 -0.00833333377 0
0.0133333337 -0.00833333377 0
0.00999999978 -0.00833333377 0
0.00666666683 -0.00833333377 0
0.00333333341 -0.00833333377 0
0 -0.00833333377 0
0.100000001 -0.0116666667 0
0.0966666639 -0.0116666667 0
0.0933333337 -0.0116666667 0
0.0900000036 -0.0116666667 0
0.086666666 -0.0116666667 0
0.0833333358 -0.0116666667 0
0.0799999982 -0.0116666667 0
0.0766666681 -0.0116666667 0
0.0733333305 -0.0116666667 0
0.0700000003 -0.0116666667 0
0.0666666701 -0.0116666667 0
0.0633333325 -0.0116666667 0
0.0599999987 -0.0116666667 0
0.0566666685 -0.0116666667 0
0.0533333346 -0.0116666667 0
0.0500000007 -0.0116666667 0
0.0466666669 -0.0116666667 0
0.043333333 -0.0116666667 0
0.0399999991 -0.0116666667 0
0.0366666652 -0.0116666667 0
0.0333333351 -0.0116666667 0
0.0299999993 -0.0116666667 0
0.0266666673 -0.0116666667 0
0.0233333334 -0.0116666667 0
0.0199999996 -0.0116666667 0
0.0166666675 -0.0116666667 0
0.0133333337 -0.0116666667 0
0.00999999978 -0.0116666667 0
0.00666666683 -0.0116666667 0
0.00333333341 -0.0116666667 0
0 -0.0116666667 0
0.100000001 -0.0149999997 0
0.0966666639 -0.0149999997 0
0.0933333337 -0.0149999997 0
0.0900000036 -0.0149999997 0
0.086666666 -0.0149999997 0
0.0833333358 -0.0149999997 0
0.0799999982 -0.0149999997 0
0.0766666681 -0.0149999997 0
0.0733333305 -0.0149999997 0
0.0700000003 -0.0149999997 0
0.0666666701 -0.0149999997 0
0.0633333325 -0.0149999997 0
0.0599999987 -0.0149999997 0
0.0566666685 -0.0149999997 0
0.0533333346 -0.0149999997 0
0.0500000007 -0.0149999997 0
0.0466666669 -0.0149999997 0
0.043333333 -0.0149999997 0
0.0399999991 -0.0149999997 0
0.0366666652 -0.0149999997 0
0.0333333351 -0.0149999997 0
0.0299999993 -0.0149999997 0
0.0266666673 -0.0149999997 0
0.0233333334 -0.0149999997 0
0.0199999996 -0.0149999997 0
0.0166666675 -0.0149999997 0
0.0133333337 -0.0149999997 0
0.00999999978 -0.0149999997 0
0.00666666683 -0.0149999997 0
0.00333333341 -0.0149999997 0
0 -0.0149999997 0
0.100000001 -0.0183333326 0
0.0966666639 -0.0183333326 0
0.0933333337 -0.0183333326 0
0.0900000036 -0.0183333326 0
0.086666666 -0.0183333326 0
0.0833333358 -0.0183333326 0
0.0799999982 -0.0183333326 0
0.0766666681 -0.0183333326 0
0.0733333305 -0.0183333326 0
0.0700000003 -0.0183333326 0
0.0666666701 -0.0183333326 0
0.0633333325 -0.0183333326 0
0.0599999987 -0.0183333326 0
0.0566666685 -0.0183333326 0
0.0533333346 -0.0183333326 0
0.0500000007 -0.0183333326 0
0.0466666669 -0.0183333326 0
0.043333333 -0.0183333326 0
0.0399999991 -0.0183333326 0
0.0366666652 -0.0183333326 0
0.0333333351 -0.0183333326 0
0.0299999993 -0.0183333326 0
0.0266666673 -0.0183333326 0
0.0233333334 -0.0183333326 0
0.0199999996 -0.0183333326 0
0.0166666675 -0.0183333326 0
0.0133333337 -0.0183333326 0
0.00999999978 -0.0183333326 0
0.00666666683 -0.0183333326 0
0.00333333341 -0.0183333326 0
0 -0.0183333326 0
0.100000001 -0.0216666665 0
0.0966666639 -0.0216666665 0
0.0933333337 -0.0216666665 0
0.0900000036 -0.0216666665 0
0.086666666 -0.0216666665 0
0.0833333358 -0.0216666665 0
0.0799999982 -0.0216666665 0
0.0766666681 -0.0216666665 0
0.0733333305 -0.0216666665 0
0.0700000003 -0.0216666665 0
0.0666666701 -0.0216666665 0
0.0633333325 -0.0216666665 0
0.0599999987 -0.0216666665 0
0.0566666685 -0.0216666665 0
0.0533333346 -0.0216666665 0
0.0500000007 -0.0216666665 0
0.0466666669 -0.0216666665 0
0.043333333 -0.0216666665 0
0.0399999991 -0.0216666665 0
0.0366666652 -0.0216666665 0
0.0333333351 -0.0216666665 0
0.0299999993 -0.0216666665 0
0.0266666673 -0.0216666665 0
0.0233333334 -0.0216666665 0
0.0199999996 -0.0216666665 0
0.0166666675 -0.0216666665 0
0.0133333337 -0.0216666665 0
0.00999999978 -0.0216666665 0
0.00666666683 -0.0216666665 0
0.00333333341 -0.0216666665 0
0 -0.0216666665 0
0.100000001 -0.0250000004 0
0.0966666639 -0.0250000004 0
0.0933333337 -0.0250000004 0
0.0900000036 -0.0250000004 0
0.086666666 -0.0250000004 0
0.0833333358 -0.0250000004 0
0.0799999982 -0.0250000004 0
0.0766666681 -0.0250000004 0
0.0733333305 -0.0250000004 0
0.0700000003 -0.0250000004 0
0.0666666701 -0.0250000004 0
0.0633333325 -0.0250000004 0
0.0599999987 -0.0250000004 0
0.0566666685 -0.0250000004 0
0.0533333346 -0.0250000004 0
0.0500000007 -0.0250000004 0
0.0466666669 -0.0250000004 0
0.043333333 -0.0250000004 0
0.0399999991 -0.0250000004 0
0.0366666652 -0.0250000004 0
0.0333333351 -0.0250000004 0
0.0299999993 -0.0250000004 0
0.0266666673 -0.0250000004 0
0.0233333334 -0.0250000004 0
0.0199999996 -0.0250000004 0
0.0166666675 -0.0250000004 0
0.0133333337 -0.0250000004 0
0.00999999978 -0.0250000004 0
0.00666666683 -0.0250000004 0
0.00333333341 -0.0250000004 0
0 -0.0250000004 0
0.100000001 -0.0283333343 0
0.0966666639 -0.0283333343 0
0.0933333337 -0.0283333343 0
0.0900000036 -0.0283333343 0
0.086666666 -0.0283333343 0
0.0833333358 -0.0283333343 0
0.0799999982 -0.0283333343 0
0.0766666681 -0.0283333343 0
0.0733333305 -0.0283333343 0
0.0700000003 -0.0283333343 0
0.0666666701 -0.0283333343 0
0.0633333325 -0.0283333343 0
0.0599999987 -0.0283333343 0
0.0566666685 -0.0283333343 0
0.0533333346 -0.0283333343 0
0.0500000007 -0.0283333343 0
0.0466666669 -0.0283333343 0
0.043333333 -0.0283333343 0
0.0399999991 -0.0283333343 0
0.0366666652 -0.0283333343 0
0.0333333351 -0.0283333343 0
0.0299999993 -0.0283333343 0
0.0266666673 -0.0283333343 0
0.0233333334 -0.0283333343 0
0.0199999996 -0.0283333343 0
0.0166666675 -0.0283333343 0
0.0133333337 -0.0283333343 0
0.00999999978 -0.0283333343 0
0.00666666683 -0.0283333343 0
0.00333333341 -0.0283333343 0
0 -0.0283333343 0
0.100000001 -0.0316666663 0
[...]
POINT_DATA 961
SCALARS Temp float 1
LOOKUP_TABLE default
324.5635953894433
293.1387846304626
268.77574543642663
250.87403324109047
238.42689874811657
230.24307408478043
225.154361356116
222.15962680967314
220.48937726686842
219.6050374111341
219.15964610647114
218.94582505132723
218.8478363356749
218.8051094386041
218.78800612784235
218.78351033351387
218.788006116747
218.80510940682282
218.84783633020936
218.94582503884484
219.15964536404593
219.60503689757354
220.48937685384902
222.159623381229
225.15435929153998
230.2430592912389
238.42688523285727
250.87399489511463
268.7757075765031
293.138768558908
324.56353206408386
293.138872782036
260.5857625792298
235.3474563580286
216.80211389519522
203.90702534887683
195.42833796300243
190.15603881930284
187.05310616542428
185.32241719658077
184.4060239664348
183.94446157673562
183.72286360258465
183.6213046481351
183.577018316728
183.55928982574704
183.5546295363428
183.55928981416008
183.57701828352864
183.6213046417961
183.72286358796188
183.9444608032635
184.40602342475387
185.3224167471498
187.05310256589345
190.15603657899425
195.42832242055837
203.9070108872652
216.80207308327022
235.34741485394184
260.58572845387033
293.13877220149715
268.7758321091148
235.3474622151187
209.4291328932632
190.38270071870645
177.13797763654716
168.42845427836005
163.01194194131037
159.8236960209607
158.04515810844998
157.10328048632326
156.6288043209404
156.400967954
156.29653213964002
156.2509837231756
156.23274730224912
156.22795303885817
156.23274729008693
156.25098368829953
156.29653213122165
156.40096793423342
156.6288035144021
157.1032799031842
158.04515758741766
159.82369219351267
163.0119393666717
168.42843774277077
177.13796159218418
190.38265628842456
209.42908400258833
235.34741494972184
268.7757108817861
250.8741262605997
216.802127813398
190.38271022793802
170.96603739737404
157.46210962890038
148.58077462279908
143.0564402093843
139.80409249499724
137.98941064533466
137.02817476893242
136.54383227988595
136.31120156452388
136.2045417648159
136.15801210082222
136.13937878702694
136.13447950288375
136.1393787742394
136.158012064118
136.20454175343664
136.31120153746906
136.5438314401381
137.02817413626542
137.9894100307188
139.80408841297225
143.05643721669287
148.5807570218649
157.46209182016094
170.96598927296648
190.38265538533443
216.80207222970785
250.87399520102917
238.42702478361704
203.90707171029914
177.13802032820658
157.4621434353805
143.7759909636946
134.7732756710701
129.17234230040975
125.87417512881323
124.0334870790207
123.0582257235208
122.56668347469956
122.33052857866285
122.22222203186418
122.17496065941808
122.1560295460631
122.15105115183363
122.15602953264803
122.17496062088196
122.22222201710052
122.33052854336415
122.56668260398362
123.05822504009946
124.03348636563744
125.87417080162135
129.1723388918585
134.77325711167936
143.7759716045765
157.4620924510565
177.1379614406945
203.90701131184522
238.4268881133932
230.2432089954255
195.42838878179882
168.428501050893
148.58081257635806
134.77327965598923
125.68924299021607
120.03665156673468
116.70735884678734
114.84886614002984
113.86392323834079
113.36736865579606
113.12873893579622
113.01926590051977
112.9714818462939
112.95233643383233
112.94730084569059
112.95233641983485
112.97148180606757
113.01926588240691
113.12873889245766
113.36736775841705
113.8639225090218
114.84886533712682
116.70735431173313
120.03664780702921
125.68922368285571
134.77325914860876
148.58075965106988
168.42843964942824
195.42832559462002
230.24306912068496
225.15450857684652
190.15610216706705
163.0120019719608
143.05649198467688
129.17236029956595
120.03666576120152
114.35101271271127
111.00163376018182
109.1315482078403
108.14024186607043
107.64036045578491
107.40007166050256
107.28980877583916
107.24166736198686
107.22237418464164
107.21729894827047
107.2223741701433
107.24166732031972
107.28980875476445
107.40007161018035
107.64035953722006
108.14024109948733
109.13154733314377
111.00162906739551
114.35100869217672
120.03664593370797
129.17233903233978
143.0564378511459
163.01193908757557
190.1560374087969
225.1543669012528
222.15976736179178
187.05316725271567
159.8237554168426
139.8041442258034
125.87419323170005
116.70737324306964
111.00163394891516
107.63993941235915
105.76267508662632
104.76738667445595
104.26540057630535
104.02405038847276
103.91327649346549
103.86490134834845
103.84551060052095
103.84040902672054
103.84551058562198
103.86490130554269
103.91327647000973
104.02405033265272
104.26539964217294
104.767385880377
105.76267416003203
107.63993461093875
111.00162975383674
116.70735308553603
125.87417150231983
139.8040893877344
159.82369169964957
187.0531016394677
222.1596247058105
220.48951399953785
185.32247943622426
158.04522022858802
137.9894656269638
124.03350862623087
114.84888410385688
109.13155199820102
105.76267871364081
103.88118468124527
102.88352311126923
102.38026766482079
102.13826946265684
102.0271797084184
101.97865835261562
101.95920592735601
101.95408759511436
101.95920591215848
101.9786583089725
102.02717968320457
102.13826940286948
102.38026672007416
102.88352229857425
103.88118372037937
105.76267384349957
109.13154769600409
114.84886375225314
124.0334866344667
137.98941040098262
158.04515606545328
185.32241337588536
220.4893708298542
219.60517419114726
184.4060861873348
157.10334211219023
137.02822926217743
123.05824681223255
113.8639407850602
108.14024524573684
104.76738989796469
102.8835227038982
101.88451331825428
101.38052770039388
101.13815180459565
101.02687548964106
100.97826665215155
100.95877690476044
100.95364835980904
100.95877688935462
100.97826660793363
101.02687546322571
101.13815174216306
101.380526748906
101.88451249390091
102.88352172213781
104.76738498749283
108.1402408824941
113.86392032662026
123.05822468023109
137.02817383362537
157.1032777212293
184.40601990285717
219.60503076321794
219.15979381367853
183.94452557910304
156.6288664312118
136.54388702056292
122.56670476630313
113.36738640537462
107.64036403124808
104.2654039940904
102.38026744710643
101.38052788888811
100.87614135965559
100.63355518544147
100.52217353125738
100.47351461638858
100.45400324744885
100.44886874173312
100.45400323190711
100.4735145718013
100.52217350407763
100.63355512136866
100.87614040416247
101.38052705773413
102.38026645348471
104.26539906148278
107.64035963541173
113.36736589149274
122.56668256335243
136.54383149137644
156.62880192909455
183.9444591869842
219.15965026132722
218.9459742137018
183.7229285894813
156.40103098437237
136.31125718649974
122.3305507092224
113.12875749181764
107.40007601647922
104.02405457341968
102.1382700034781
101.1381527481511
100.63355593921736
100.39085787075803
100.27941933482283
100.23073298939177
100.21120962848701
100.20607179105815
100.21120961286195
100.23073294458138
100.27941930718833
100.3908578057345
100.63355498148967
101.13815191328045
102.13826900354435
104.02404962937956
107.40007160423454
113.12873695068036
122.33052847216199
136.3112016096403
156.40096643040263
183.72286214783082
218.94583060390966
218.8479753419374
183.62136863170764
156.29659537018688
136.20459774596995
122.22224443292234
113.0192846425742
107.28981326153807
103.91328077761091
102.02718033200549
101.02687650836799
100.5221743568343
100.27941940534895
100.1679515173983
100.1192508094917
100.0997210896353
100.09458147160706
100.09972107396207
100.11925076455499
100.16795148951026
100.27941933980892
100.52217339793327
101.02687567158789
102.02717932890998
103.91327582799364
107.28980884147617
113.01926408870864
122.22222218024648
136.2045421475483
156.29653079307946
183.6213021682193
218.8478317067445
218.80524807519217
183.57708228779234
156.25104775838722
136.15806861008704
122.17498335670996
112.97150074118291
107.24167192100553
103.86490566507466
101.9786589883726
100.97826767358619
100.47351544044355
100.23073305663205
100.11925080568926
100.07054296928789
100.05101005431412
100.04586953481892
100.05101003861488
100.0705429242845
100.11925077766972
100.23073299083055
100.47351448096639
100.97826683588832
101.97865798379293
103.864900712899
107.24166749743478
112.97148018169725
122.17496109726136
136.1580130024033
156.25098317146012
183.57701581514166
218.80510442929597
218.78814959604858
183.55935826393522
156.23281297353316
136.1394360494247
122.1560526136828
112.9523555238666
107.22237885420593
103.84551498707485
101.95920661347648
100.95877796765559
100.45400410901948
100.21120973157426
100.09972112107445
100.05101008939317
100.0314757270371
100.02633479653353
100.03147571132574
100.0510100443586
100.09972109299481
100.21120966565609
100.45400314929104
100.95877712956637
101.95920560827764
103.84551003385104
107.22237442922741
112.95233496215067
122.15603035159235
136.1393804381486
156.2327483828427
183.5592917878175
218.78800594606676
218.78367671025813
183.55470242804807
156.22802022336293
136.1345373493109
122.15107448240803
112.94732006568641
107.21730368745621
103.84041345467443
101.95408830940025
100.95364944482455
100.44886962274107
100.20607191243549
100.09458152088298
100.04586958757457
100.0263348141659
100.0211937664789
100.02633479845099
100.04586954253136
100.0945814927873
100.20607184648759
100.44886866295025
100.95364860664338
101.95408730406278
103.84040850121973
107.21729926218424
112.94729950350009
122.15105221978756
136.1344817373015
156.22795563193458
183.55463595130078
218.7835330594605
218.78817264074502
183.55936284524316
156.2328145855368
136.13943669559868
122.15605290830361
112.95235566477248
107.22237892308938
103.8455150213247
101.95920663114545
100.95877797754297
100.45400411535762
100.2112097363462
100.09972112517978
100.05101009322613
100.03147573076679
100.02633480023678
100.03147571505532
100.0510100481923
100.09972109710337
100.21120967043812
100.45400315565419
100.9587771395079
101.9592056260515
103.84551006828535
107.22237449840878
112.95233510349978
122.1560306468227
136.13938108509743
156.23274999575798
183.5592963701231
218.78802899173743
218.8052533703537
183.57708719132745
156.25104971888143
136.15806956517042
122.17498383020829
112.97150098069784
107.24167204306873
103.86490572837188
101.97865902277904
100.9782676941782
100.47351545464807
100.23073306798949
100.11925081582575
100.07054297892299
100.05101006375803
100.04586954421393
100.0510100480582
100.07054293391958
100.1192507878111
100.23073300220736
100.47351449522456
100.97826685660449
101.97865801845128
103.8649007766562
107.24166762026327
112.97148042237788
122.17496157239354
136.1580139595944
156.25098513446056
183.57702072141893
218.80510972720637
218.8479760167217
183.6213695217769
156.2965968465416
136.2045986458204
122.22224494774582
113.01928492639775
107.28981341751225
103.91328086555589
102.02718038511924
101.02687654434801
100.52217438473143
100.2794194295919
100.16795154005847
100.11925083149718
100.0997211113899
100.0945814932963
100.09972109571329
100.11925078655563
100.16795151217045
100.27941936407353
100.52217342591247
101.02687570778468
102.02717938250163
103.91327591686465
107.28980899906149
113.01926437507552
122.22222269873396
136.2045430522268
156.29653227526052
183.62130306472162
218.84783238801185
218.94596560321477
183.72292951209272
156.40103189981176
136.31125793570317
122.33055119482306
113.1287577924773
107.40007620266546
104.02405469426533
102.13827008925767
101.13815281613358
100.63355599862905
100.39085792624294
100.27941938859274
100.23073304244858
100.21120968126903
100.20607184376658
100.21120966563366
100.23073299761889
100.27941936093646
100.39085786121937
100.63355504098735
101.13815198157381
102.13826909011384
104.02404975189665
107.40007179351565
113.12873725646041
122.33052896540754
136.31120236919153
156.40096735856557
183.7228630846449
218.9458220077958
219.15980432538137
183.94452696898682
156.62886757635664
136.54388786574143
122.56670542827428
113.36738692809118
107.64036446083895
104.26540436738564
102.38026778913941
101.3805282147607
100.8761416776846
100.63355549987428
100.52217384412576
100.47351492861029
100.45400355942111
100.4488690536344
100.45400354385436
100.47351488396916
100.522173816864
100.63355543571541
100.87614072219144
101.38052738392162
102.38026679661597
104.26539943746448
107.64036007044476
113.3673664238002
122.56668324032293
136.54383235756006
156.6288031006814
183.94446060681037
219.15966080344097
219.60517646000713
184.4060879460306
157.1033426258957
137.0282295455731
123.0582469390533
113.86394079284004
108.14024517194619
104.76738977455567
102.88352255302136
101.88451315329358
101.38052752866605
101.13815162979687
101.02687531351812
100.97826647548354
100.95877672787915
100.95364818285748
100.95877671241925
100.97826643114145
101.0268752868859
101.13815156705346
101.38052657686306
101.88451232894019
102.8835215723448
104.7673848677301
108.14024081726453
113.86392035092791
123.05822483458202
137.02817415733784
157.10327828725718
184.4060217218688
219.60503309372524
220.48951495794537
185.3224804776235
158.0452217723706
137.98946714763886
124.0335100203037
114.84888539669917
109.13155322830454
105.76267990985563
103.88118586085108
102.88352428337443
102.38026883378546
102.13827063040067
102.02718087572109
101.97865951976695
101.95920709444893
101.9540887621638
101.95920707914642
101.97865947587188
102.0271808500292
102.13827056982329
102.38026788794072
102.88352346959583
103.88118489998514
105.76267504322817
109.13154893749928
114.84886507065855
124.03348807524863
137.98941199445386
158.04515770768916
185.322414533536
220.48937190804008
222.15976142388794
187.05316593367814
159.82375538551292
139.8041439783598
125.87419278072778
116.70737267443901
111.00163332660536
107.63993876909856
105.76267443660694
104.76738602294279
104.26539992486595
104.02404973737531
103.91327584262783
103.86490069764892
103.84550994986407
103.8404083760241
103.84550993478072
103.86490065438313
103.91327581824594
104.0240496798837
104.2653989880471
104.76738522521713
105.76267350649861
107.63993396767785
111.00162914229738
116.70735255048402
125.87417112297263
139.80408926287546
159.82369184424996
187.0531005352907
222.15961899177847
225.15450775248956
190.15610979356515
163.01200757968476
143.05649707646592
129.17236520725177
120.03667065600578
114.35101764527838
111.00163873372023
109.13155321153272
108.14024688846611
107.64036548857621
107.40007669860955
107.28981381647756
107.24167240374254
107.2223792268172
107.21730399047452
107.22237921202083
107.24167236131034
107.28981379379157
107.40007664519241
107.64036456456891
108.14024611332174
109.13155232544419
111.00163403016312
114.35101362474346
120.03665086002233
129.172344034292
143.05644313229547
163.01194499331262
190.15604541821637
225.15436648241217
230.2432409052125
195.4283934928472
168.42850336363625
148.58081409419353
134.773281154233
125.68924463386892
120.0366533544768
116.7073607370218
114.8488680931238
113.8639252263595
113.3673706617721
113.12874095041252
113.01926791904768
112.97148386647578
112.95233845461343
112.9473028665058
112.95233844017251
112.97148382508335
113.01926789839116
113.12874090195315
113.36736975480171
113.86392448051237
114.84886726465731
116.70735616838827
120.03664956326057
125.68922532650808
134.77326073705945
148.58076142601098
168.42844243891972
195.42833096998532
230.24310175322043
238.42701438059456
203.90706576942264
177.1380122783979
157.46213562066114
143.77598366031387
134.77326880247313
129.1723357250385
125.87416873076391
124.0334807796687
123.05821947539445
122.56667725154071
122.33052236698553
122.22221582517838
122.1749544547644
122.1560233421153
122.15104494790044
122.15602332809044
122.17495441459421
122.22221580675046
122.33052232404167
122.56667636582492
123.0582187644424
124.03348001957555
125.87416433194566
129.17233222221913
134.7732501528731
143.77596430119334
157.46208490365518
177.13795409389803
203.9070065179781
238.42687900625808
250.87412099436875
216.80212672187918
190.38271311153835
170.96604289597786
157.46211680840216
148.58078282975916
143.05644902705956
139.8041016572199
137.98941999175833
137.02818420867038
136.54384176449156
136.31121106964497
136.20455127886572
136.1580216185415
136.139388306069
136.13448902205695
136.13938829250588
136.15802157972806
136.2045512626568
136.31121103224135
136.54384090373787
137.02818353568546
137.98941930434526
139.8040974526084
143.05644584500573
148.5807649717169
157.4620987323397
170.96599477157082
190.38265918339593
216.80207310410375
250.87399245776226
268.7757985747491
235.3474358839165
209.42911521522956
190.38268726575384
177.1379663943201
168.42844431598948
163.0119326993419
159.82368716889545
158.04514945748662
157.10327193402625
156.6287958146898
156.40095946820745
156.29652366250085
156.25097524948856
156.2327388297557
156.2279445664227
156.2327388166805
156.25097521210452
156.29652364825432
156.40095943571617
156.6287949817086
157.1032712985636
158.0451488379998
159.8236831655152
163.01192982668707
168.42842730364765
177.13794964693548
190.38264192100772
209.42906632454893
235.3473927918815
268.77568235101177
293.1388431286553
260.5857691917408
235.34747341844056
216.80213561021438
203.9070501283201
195.4283645652409
190.15606646569452
187.0531343819199
185.32244570984824
184.40605262691597
183.94449030684962
183.72289236414002
183.62133342324813
183.57704709738397
183.5593186084126
183.55465831925886
183.55931859583268
183.57704706144006
183.6213334104746
183.72289233531012
183.9444895034376
184.40605202491827
185.32244514416476
187.05313056752468
190.156063842458
195.4283483584852
203.90703451968685
216.80209283237096
235.34742774097077
260.5857350663621
293.1387696602717
324.5635712341624
293.13877545985133
268.775735019317
250.87402697116315
238.42689513776233
230.243072089366
225.15436027317998
222.15962621733846
220.4893769256107
219.6050371922717
219.15964594447428
218.94582491453383
218.84783620953894
218.8051093167308
218.78800600746197
218.7835102132471
218.78800599537135
218.80510928219303
218.84783619759082
218.9458248876846
219.1596451716299
219.60503661705968
220.48937639281343
222.15962256502675
225.15435780308664
230.24305657304606
238.42688032660203
250.8739861022266
268.7756921557825
293.13873227614556
324.5635079088294
