# vtk DataFile Version 2.0
Unstructured Grid Example
ASCII
DATASET UNSTRUCTURED_GRID

POINTS 961 float
0.100000001 0.00499999989 0
0.0966666639 0.00499999989 0
0.0933333337 0.00499999989 0
0.0900000036 0.00499999989 0
0.086666666 0.00499999989 0
0.0833333358 0.00499999989 0
0.0799999982 0.00499999989 0
0.0766666681 0.00499999989 0
0.0733333305 0.00499999989 0
0.0700000003 0.00499999989 0
0.0666666701 0.00499999989 0
0.0633333325 0.00499999989 0
0.0599999987 0.00499999989 0
0.0566666685 0.00499999989 0
0.0533333346 0.00499999989 0
0.0500000007 0.00499999989 0
0.0466666669 0.00499999989 0
0.043333333 0.00499999989 0
0.0399999991 0.00499999989 0
0.0366666652 0.00499999989 0
0.0333333351 0.00499999989 0
0.0299999993 0.00499999989 0
0.0266666673 0.00499999989 0
0.0233333334 0.00499999989 0
0.0199999996 0.00499999989 0
0.0166666675 0.00499999989 0
0.0133333337 0.00499999989 0
0.00999999978 0.00499999989 0
0.00666666683 0.00499999989 0
0.00333333341 0.00499999989 0
0 0.00499999989 0
0.100000001 0.00166666671 0
0.0966666639 0.00166666671 0
0.0933333337 0.00166666671 0
0.0900000036 0.00166666671 0
0.086666666 0.00166666671 0
0.0833333358 0.00166666671 0
0.0799999982 0.00166666671 0
0.0766666681 0.00166666671 0
0.0733333305 0.00166666671 0
0.0700000003 0.00166666671 0
0.0666666701 0.00166666671 0
0.0633333325 0.00166666671 0
0.0599999987 0.00166666671 0
0.0566666685 0.00166666671 0
0.0533333346 0.00166666671 0
0.0500000007 0.00166666671 0
0.0466666669 0.00166666671 0
0.043333333 0.00166666671 0
0.0399999991 0.00166666671 0
0.0366666652 0.00166666671 0
0.0333333351 0.00166666671 0
0.0299999993 0.00166666671 0
0.0266666673 0.00166666671 0
0.0233333334 0.00166666671 0
0.0199999996 0.00166666671 0
0.0166666675 0.00166666671 0
0.0133333337 0.00166666671 0
0.00999999978 0.00166666671 0
0.00666666683 0.00166666671 0
0.00333333341 0.00166666671 0
0 0.00166666671 0
0.100000001 -0.00166666671 0
0.0966666639 -0.00166666671 0
0.0933333337 -0.00166666671 0
0.0900000036 -0.00166666671 0
0.086666666 -0.00166666671 0
0.0833333358 -0.00166666671 0
0.0799999982 -0.00166666671 0
0.0766666681 -0.00166666671 0
0.0733333305 -0.00166666671 0
0.0700000003 -0.00166666671 0
0.0666666701 -0.00166666671 0
0.0633333325 -0.00166666671 0
0.0599999987 -0.00166666671 0
0.0566666685 -0.00166666671 0
0.0533333346 -0.00166666671 0
0.0500000007 -0.00166666671 0
0.0466666669 -0.00166666671 0
0.043333333 -0.00166666671 0
0.0399999991 -0.00166666671 0
0.0366666652 -0.00166666671 0
0.0333333351 -0.00166666671 0
0.0299999993 -0.00166666671 0
0.0266666673 -0.00166666671 0
0.0233333334 -0.00166666671 0
0.0199999996 -0.00166666671 0
0.0166666675 -0.00166666671 0
0.0133333337 -0.00166666671 0
0.00999999978 -0.00166666671 0
0.00666666683 -0.00166666671 0
0.00333333341 -0.00166666671 0
0 -0.00166666671 0
0.100000001 -0.00499999989 0
0.0966666639 -0.00499999989 0
0.0933333337 -0.00499999989 0
0.0900000036 -0.00499999989 0
0.086666666 -0.00499999989 0
0.0833333358 -0.00499999989 0
0.0799999982 -0.00499999989 0
0.0766666681 -0.00499999989 0
0.0733333305 -0.00499999989 0
0.0700000003 -0.00499999989 0
0.0666666701 -0.00499999989 0
0.0633333325 -0.00499999989 0
0.0599999987 -0.00499999989 0
0.0566666685 -0.00499999989 0
0.0533333346 -0.00499999989 0
0.0500000007 -0.00499999989 0
0.0466666669 -0.00499999989 0
0.043333333 -0.00499999989 0
0.0399999991 -0.00499999989 0
0.0366666652 -0.00499999989 0
0.0333333351 -0.00499999989 0
0.0299999993 -0.00499999989 0
0.0266666673 -0.00499999989 0
0.0233333334 -0.00499999989 0
0.0199999996 -0.00499999989 0
0.0166666675 -0.00499999989 0
0.0133333337 -0.00499999989 0
0.00999999978 -0.00499999989 0
0.00666666683 -0.00499999989 0
0.00333333341 -0.00499999989 0
0 -0.00499999989 0
0.100000001 -0.00833333377 0
0.0966666639 -0.00833333377 0
0.0933333337 -0.00833333377 0
0.0900000036 -0.00833333377 0
0.086666666 -0.00833333377 0
0.0833333358 -0.00833333377 0
0.0799999982 -0.00833333377 0
0.0766666681 -0.00833333377 0
0.0733333305 -0.00833333377 0
0.0700000003 -0.00833333377 0
0.0666666701 -0.00833333377 0
0.0633333325 -0.00833333377 0
0.0599999987 -0.00833333377 0
0.0566666685 -0.00833333377 0
0.0533333346 -0.00833333377 0
0.0500000007 -0.00833333377 0
0.0466666669 -0.00833333377 0
0.043333333 -0.00833333377 0
0.0399999991 -0.00833333377 0
0.0366666652 -0.00833333377 0
0.0333333351 -0.00833333377 0
0.0299999993 -0.00833333377 0
0.0266666673 -0.00833333377 0
0.0233333334 -0.00833333377 0
0.0199999996 -0.00833333377 0
0.0166666675 -0.00833333377 0
0.0133333337 -0.00833333377 0
0.00999999978 -0.00833333377 0
0.00666666683 -0.00833333377 0
0.00333333341 -0.00833333377 0
0 -0.00833333377 0
0.100000001 -0.0116666667 0
0.0966666639 -0.0116666667 0
0.0933333337 -0.0116666667 0
0.0900000036 -0.0116666667 0
0.086666666 -0.0116666667 0
0.0833333358 -0.0116666667 0
0.0799999982 -0.0116666667 0
0.0766666681 -0.0116666667 0
0.0733333305 -0.0116666667 0
0.0700000003 -0.0116666667 0
0.0666666701 -0.0116666667 0
0.0633333325 -0.0116666667 0
0.0599999987 -0.0116666667 0
0.0566666685 -0.0116666667 0
0.0533333346 -0.0116666667 0
0.0500000007 -0.0116666667 0
0.0466666669 -0.0116666667 0
0.043333333 -0.0116666667 0
0.0399999991 -0.0116666667 0
0.0366666652 -0.0116666667 0
0.0333333351 -0.0116666667 0
0.0299999993 -0.0116666667 0
0.0266666673 -0.0116666667 0
0.0233333334 -0.0116666667 0
0.0199999996 -0.0116666667 0
0.0166666675 -0.0116666667 0
0.0133333337 -0.0116666667 0
0.00999999978 -0.0116666667 0
0.00666666683 -0.0116666667 0
0.00333333341 -0.0116666667 0
0 -0.0116666667 0
0.100000001 -0.0149999997 0
0.0966666639 -0.0149999997 0
0.0933333337 -0.0149999997 0
0.0900000036 -0.0149999997 0
0.086666666 -0.0149999997 0
0.0833333358 -0.0149999997 0
0.0799999982 -0.0149999997 0
0.0766666681 -0.0149999997 0
0.0733333305 -0.0149999997 0
0.0700000003 -0.0149999997 0
0.0666666701 -0.0149999997 0
0.0633333325 -0.0149999997 0
0.0599999987 -0.0149999997 0
0.0566666685 -0.0149999997 0
0.0533333346 -0.0149999997 0
0.0500000007 -0.0149999997 0
0.0466666669 -0.0149999997 0
0.043333333 -0.0149999997 0
0.0399999991 -0.0149999997 0
0.0366666652 -0.0149999997 0
0.0333333351 -0.0149999997 0
0.0299999993 -0.0149999997 0
0.0266666673 -0.0149999997 0
0.0233333334 -0.0149999997 0
0.0199999996 -0.0149999997 0
0.0166666675 -0.0149999997 0
0.0133333337 -0.0149999997 0
0.00999999978 -0.0149999997 0
0.00666666683 -0.0149999997 0
0.00333333341 -0.0149999997 0
0 -0.0149999997 0
0.100000001 -0.0183333326 0
0.0966666639 -0.0183333326 0
0.0933333337 -0.0183333326 0
0.0900000036 -0.0183333326 0
0.086666666 -0.0183333326 0
0.0833333358 -0.0183333326 0
0.0799999982 -0.0183333326 0
0.0766666681 -0.0183333326 0
0.0733333305 -0.0183333326 0
0.0700000003 -0.0183333326 0
0.0666666701 -0.0183333326 0
0.0633333325 -0.0183333326 0
0.0599999987 -0.0183333326 0
0.0566666685 -0.0183333326 0
0.0533333346 -0.0183333326 0
0.0500000007 -0.0183333326 0
0.0466666669 -0.0183333326 0
0.043333333 -0.0183333326 0
0.0399999991 -0.0183333326 0
0.0366666652 -0.0183333326 0
0.0333333351 -0.0183333326 0
0.0299999993 -0.0183333326 0
0.0266666673 -0.0183333326 0
0.0233333334 -0.0183333326 0
0.0199999996 -0.0183333326 0
0.0166666675 -0.0183333326 0
0.0133333337 -0.0183333326 0
0.00999999978 -0.0183333326 0
0.00666666683 -0.0183333326 0
0.00333333341 -0.0183333326 0
0 -0.0183333326 0
0.100000001 -0.0216666665 0
0.0966666639 -0.0216666665 0
0.0933333337 -0.0216666665 0
0.0900000036 -0.0216666665 0
0.086666666 -0.0216666665 0
0.0833333358 -0.0216666665 0
0.0799999982 -0.0216666665 0
0.0766666681 -0.0216666665 0
0.0733333305 -0.0216666665 0
0.0700000003 -0.0216666665 0
0.0666666701 -0.0216666665 0
0.0633333325 -0.0216666665 0
0.0599999987 -0.0216666665 0
0.0566666685 -0.0216666665 0
0.0533333346 -0.0216666665 0
0.0500000007 -0.0216666665 0
0.0466666669 -0.0216666665 0
0.043333333 -0.0216666665 0
0.0399999991 -0.0216666665 0
0.0366666652 -0.0216666665 0
0.0333333351 -0.0216666665 0
0.0299999993 -0.0216666665 0
0.0266666673 -0.0216666665 0
0.0233333334 -0.0216666665 0
0.0199999996 -0.0216666665 0
0.0166666675 -0.0216666665 0
0.0133333337 -0.0216666665 0
0.00999999978 -0.0216666665 0
0.00666666683 -0.0216666665 0
0.00333333341 -0.0216666665 0
0 -0.0216666665 0
0.100000001 -0.0250000004 0
0.0966666639 -0.0250000004 0
0.0933333337 -0.0250000004 0
0.0900000036 -0.0250000004 0
0.086666666 -0.0250000004 0
0.0833333358 -0.0250000004 0
0.0799999982 -0.0250000004 0
0.0766666681 -0.0250000004 0
0.0733333305 -0.0250000004 0
0.0700000003 -0.0250000004 0
0.0666666701 -0.0250000004 0
0.0633333325 -0.0250000004 0
0.0599999987 -0.0250000004 0
0.0566666685 -0.0250000004 0
0.0533333346 -0.0250000004 0
0.0500000007 -0.0250000004 0
0.0466666669 -0.0250000004 0
0.043333333 -0.0250000004 0
0.0399999991 -0.0250000004 0
0.0366666652 -0.0250000004 0
0.0333333351 -0.0250000004 0
0.0299999993 -0.0250000004 0
0.0266666673 -0.0250000004 0
0.0233333334 -0.0250000004 0
0.0199999996 -0.0250000004 0
0.0166666675 -0.0250000004 0
0.0133333337 -0.0250000004 0
0.00999999978 -0.0250000004 0
0.00666666683 -0.0250000004 0
0.00333333341 -0.0250000004 0
0 -0.0250000004 0
0.100000001 -0.0283333343 0
0.0966666639 -0.0283333343 0
0.0933333337 -0.0283333343 0
0.0900000036 -0.0283333343 0
0.086666666 -0.0283333343 0
0.0833333358 -0.0283333343 0
0.0799999982 -0.0283333343 0
0.0766666681 -0.0283333343 0
0.0733333305 -0.0283333343 0
0.0700000003 -0.0283333343 0
0.0666666701 -0.0283333343 0
0.0633333325 -0.0283333343 0
0.0599999987 -0.0283333343 0
0.0566666685 -0.0283333343 0
0.0533333346 -0.0283333343 0
0.0500000007 -0.0283333343 0
0.0466666669 -0.0283333343 0
0.043333333 -0.0283333343 0
0.0399999991 -0.0283333343 0
0.0366666652 -0.0283333343 0
0.0333333351 -0.0283333343 0
0.0299999993 -0.0283333343 0
0.0266666673 -0.0283333343 0
0.0233333334 -0.0283333343 0
0.0199999996 -0.0283333343 0
0.0166666675 -0.0283333343 0
0.0133333337 -0.0283333343 0
0.00999999978 -0.0283333343 0
0.00666666683 -0.0283333343 0
0.00333333341 -0.0283333343 0
0 -0.0283333343 0
0.100000001 -0.0316666663 0
[...]
POINT_DATA 961
SCALARS Temp float 1
LOOKUP_TABLE default
292.1342190509153
260.32863441552036
237.22812156374002
221.68676596975902
212.01291951714364
206.4370415345229
203.45387406038176
201.96720499559356
201.27416410922433
200.9705675691599
200.8450036072292
200.79574876506388
200.7773476609383
200.77078953956163
200.7686047528415
200.76809650028892
200.76860475276848
200.77078953931812
200.7773476726998
200.79574879892948
200.84500351594573
200.97056766477013
201.27416459519563
201.96720494599003
203.45387627108312
206.4370390907086
212.01292300104626
221.68675840280454
237.22812660285675
260.3286772849691
292.1342187706551
260.32869384693265
227.40831371086207
203.4970358982789
187.40925477091045
177.3945291976935
171.62166971937705
168.5328166271423
166.99332058811345
166.27557692714942
165.9611250857175
165.83105754711076
165.78003071775004
165.76096566826462
165.75417025479487
165.75190621787075
165.75137949814214
165.75190621779197
165.75417025453163
165.76096568041646
165.78003075273287
165.83105745225413
165.9611251839404
166.27557742831192
166.99332053120708
168.5328189024292
171.6216671540329
177.39453271753564
187.40924663657492
203.49704063725915
227.40834484930534
260.32868077079985
237.22813088429044
203.49701031130454
178.9939787771518
162.50543456743299
152.23920381343277
146.32000368332984
143.1520378053513
141.57267865287548
140.8361399293482
140.51336009863314
140.37980909949135
140.32740068625463
140.30781397995548
140.30083076656902
140.29850360110828
140.2979621071525
140.29850360101827
140.30083076626784
140.30781399234618
140.32740072190745
140.3798090012829
140.5133601972968
140.83614043800532
141.57267858013503
143.15204010413862
146.32000096833048
152.2392072121103
162.50542572103723
178.99398162203968
203.4970402554454
237.2281282299536
221.68676003650864
187.40921321132612
162.50542188628623
145.7436910649115
135.30463619262218
129.2839409417091
126.06054453607624
124.45295266639171
123.70295437935283
123.37414409792858
123.23804290437096
123.18461223683117
123.16463558531063
123.15751062844797
123.15513540691023
123.15458260204026
123.15513540680581
123.15751062809676
123.16463559781674
123.1846122727972
123.23804280318646
123.37414419557578
123.70295489007349
124.45295257457398
126.06054683443347
129.28393808802537
135.3046394551962
145.7436816485823
162.5054243628313
187.40924473664685
221.68675857362473
212.01292405773972
177.3944985875016
152.23920330070146
135.3046491934679
124.75517534775969
118.66888703324358
115.40921253839312
113.78289374255536
113.02384362180324
112.69092107678868
112.55305688331944
112.49891003278285
112.47865666942918
112.4714299068527
112.46901979867712
112.46845872421036
112.46901979855696
112.4714299064485
112.47865668196705
112.49891006882797
112.55305677969417
112.69092117283063
113.02384413186361
113.7828936338478
115.4092148295093
118.66888408288911
124.75517853411736
135.30463956865566
152.23920592309298
177.39453084264537
212.01292318999606
206.43704085100248
171.62163360910992
146.31999797807185
129.28394896282566
118.6688820180717
112.54310689959388
109.26126867215295
107.62332740676166
106.85856720034602
106.52300750262005
106.38399411894825
106.32937293967275
106.30893347724009
106.30163724720235
106.29920302702837
106.29863618842022
106.2992030268934
106.3016372467494
106.30893348976491
106.32937297568037
106.3839940135023
106.52300759715243
106.85856770910894
107.62332728632374
109.26127095886896
112.54310389771823
118.66888519300325
129.28393929429896
146.32000073250597
171.62166628733442
206.43704025856118
203.45387676047932
168.53278395685277
143.15203582943155
126.06055650555166
115.40921153913098
109.26127275839067
105.96678791736866
104.32209665354019
103.55395853317182
103.21680926231025
103.07709012323343
103.02217225133664
103.00161430041221
102.99427309108478
102.99182302487935
102.99125236088899
102.99182302473224
102.9942730905925
103.00161431290888
103.02217228727378
103.07709001656319
103.21680935576818
103.55395904103473
104.32209652663799
105.96679020413751
109.26126973623938
115.40921472780286
126.06054683861932
143.15203867592172
168.5328168651436
203.45387631194495
201.9672056166121
166.99328572816117
141.57267452346255
124.45296251752607
113.78289061587502
107.62332938050753
104.32209453082612
102.67373091111527
101.90371768213465
101.5656676311015
101.42554017568669
101.37044709922144
101.34981776937762
101.34244894540555
101.33998898601104
101.339415907234
101.339988985855
101.34244894488504
101.34981778184816
101.37044713509908
101.4255400682788
101.56566772395351
101.90371818968053
102.67373078146275
104.32209682003112
107.62332635304128
113.78289382041557
124.45295286163578
141.57267742458657
166.99331875623596
201.96720524223443
201.2741650648202
166.27554239534956
140.83613617790672
123.7029646489937
113.02384092679196
106.85856962601089
103.55395686604092
101.90371814297725
101.1327268377888
100.79419644140427
100.65384632171981
100.59865554885917
100.57798553856456
100.57060064439408
100.56813482016032
100.56756029239776
100.56813481999826
100.5706006438555
100.57798555101743
100.59865558470149
100.65384621391539
100.79419653399204
101.13272734539211
101.90371801253984
103.55395915791703
106.85856659848648
113.02384414271586
123.70295500240789
140.8361391083951
166.27557548218854
201.27416472719585
200.97056793280865
165.96108993241583
140.51335572682942
123.37415375028417
112.6909177606423
106.52300931078888
103.21680697643855
101.56566747428484
100.79419582305329
100.45542401942616
100.31495932391847
100.25971707386597
100.23902512109083
100.23163136159609
100.22916223663117
100.22858688266356
100.22916223646546
100.2316313610471
100.2390251335343
100.25971710969304
100.3149592159248
100.45542411193769
100.79419633084393
101.56566734383104
103.21680927028258
106.52300628434035
112.69092098321839
123.37414410944422
140.5133586718123
165.96112304637998
200.97056761241564
200.8450038541228
165.83102226926607
140.37980460689855
123.23805243960211
112.55305345010603
106.38399581289357
103.07708772350063
101.42553990611862
100.65384559067658
100.31495921143083
100.17443879533086
100.11917088472731
100.09846772163503
100.09106932380993
100.0885984349465
100.08802263332908
100.08859843477893
100.09106932325555
100.09846773407463
100.119170920551
100.17443868725798
100.3149593039432
100.65384609864257
101.42553977583212
103.0770900185263
106.38399278735199
112.55305667609449
123.23804280177934
140.37980755851748
165.8310553950212
200.84500354134317
200.79574910297546
165.77999553274722
140.3273962917525
123.18462187439522
112.49890670388878
106.32937474045536
103.02216995948316
101.3704469385705
100.59865492709417
100.25971707093352
100.11917099437805
100.06389096406676
100.04318237015983
100.03578166909762
100.03330988484197
100.03273385271874
100.03330988467349
100.03578166854085
100.04318238259854
100.06389099989177
100.11917088627655
100.25971716346629
100.59865543517893
101.37044680843066
103.02217225512716
106.32937171545029
112.498909931464
123.18461223798974
140.32739924621043
165.78002866334324
200.79574879336838
200.7773479815685
165.76093046480617
140.3078095675115
123.16464520545644
112.47865332311764
106.30893526109335
103.00161199174588
101.34981759217064
100.5779849003092
100.2390251017456
100.09846781489644
100.04318235376235
100.02247126303135
100.0150694761051
100.01259726014862
100.0120211152699
100.01259725997949
100.01506947554722
100.0224712754702
100.0431823895898
100.0984677067864
100.2390251942961
100.57798540846105
101.34981746211966
103.00161428768133
106.30893223635555
112.4786565513741
123.16463556966127
140.30781252311186
165.76096359728658
200.7773476732122
200.77078984968543
165.75413504025016
140.30082634309116
123.15752023764858
112.47142654952331
106.30163902017273
102.9942707715529
101.3424487574196
100.57059999538116
100.23163133152377
100.09106940635445
100.03578164198048
100.01506946538571
100.0076671944228
100.00519478175643
100.00461858476966
100.00519478158726
100.00766719386466
100.01506947782501
100.0357816778098
100.09106929824274
100.23163142408528
100.57060050356644
101.34244862741383
102.99427306761463
106.30163599555378
112.47142977805322
123.15751060209853
140.30082929912646
165.75416817342807
200.77078954179765
200.76860506377162
165.7518710040939
140.29849917853872
123.15514501714267
112.4690164424224
106.29920480116787
102.99182070655517
101.33998879928531
100.5681341724289
100.2291622078598
100.08859851880068
100.03330985903578
100.01259725074145
100.00519478306936
100.00272228889132
100.00214607004312
100.00272228872211
100.0051947825112
100.01259726318112
100.03330989486626
100.08859841068917
100.22916230042692
100.56813468062902
101.33998866929987
102.99182300266759
106.29920177659793
112.46901967105532
123.15513538168601
140.29850213473154
165.75190413751656
200.76860475605133
200.76809681181777
165.75134428497148
140.29795768523772
123.15459221297118
112.46845536867747
106.29863796331522
102.99125004333835
101.33941572130065
100.56755964546832
100.22858685470182
100.08802271799658
100.03273382772704
100.01202110667806
100.00461858689812
100.0021460708588
100.00156984610136
100.00214607068962
100.00461858634006
100.01202111911796
100.032733863558
100.0880226098856
100.2285869472714
100.5675601536743
101.33941559132387
102.99125233946859
106.29863493876533
112.46845859734628
123.15458257755088
140.29796064148425
165.75137741846964
200.76809650415484
200.7686050640927
165.75187100442994
140.29849917889374
123.15514501751842
112.46901644281878
106.29920480158263
102.99182070698463
101.33998879972542
100.56813417287599
100.22916220831114
100.08859851925429
100.03330985949037
100.01259725119658
100.00519478352464
100.0027222893467
100.00214607049848
100.00272228917746
100.00519478296653
100.01259726363638
100.03330989532142
100.08859841114418
100.22916230088141
100.56813468108274
101.3399886697521
102.99182300311739
106.2992017770442
112.46901967149637
123.15513538211974
140.2985021351557
165.75190413792868
200.76860475644884
200.77078985060027
165.75413504120988
140.30082634411016
123.15752023873465
112.47142655067606
106.3016390213843
102.99427077281075
101.34244875871022
100.57059999669272
100.23163133284721
100.091069407684
100.0357816433127
100.01506946671908
100.00766719575654
100.00519478309036
100.00461858610342
100.00519478292111
100.0076671951984
100.01506947915867
100.03578167914316
100.0910692995757
100.2316314254169
100.57060050489581
101.34244862873918
102.9942730689333
106.30163599686196
112.47142977934605
123.15751060336997
140.30082930036994
165.75416817463605
200.77078954296286
200.7773479841426
165.76093046750992
140.30780957039016
123.16464520853424
112.47865332639111
106.30893526453595
103.00161199531772
101.34981759583057
100.57798490402254
100.23902510548794
100.09846781865245
100.04318235752399
100.02247126679491
100.01506947986923
100.01259726391271
100.01202111903388
100.01259726374352
100.01506947931118
100.02247127923383
100.04318239335294
100.09846771054815
100.239025198055
100.57798541221436
101.34981746586274
103.00161429140671
106.30893224005271
112.4786565550291
123.16463557325704
140.30781252662877
165.7609636007039
200.7773476765081
200.7957491108596
165.77999554102405
140.32739630055252
123.18462188377993
112.49890671383467
106.3293747508711
103.02216997024462
101.37044694955594
100.59865493820786
100.25971708211128
100.11917100558358
100.06389097528209
100.04318238137796
100.03578168031594
100.03330989606009
100.03273386393637
100.03330989589095
100.03578167975809
100.04318239381524
100.06389101110722
100.11917089748881
100.25971717467179
100.59865544637047
101.37044681959534
103.02217226624434
106.3293717264895
112.49890994238368
123.18461224873822
140.32739925672828
165.78002867356594
200.79574880322951
200.84500392006223
165.83102233788577
140.37980467821126
123.23805251343612
112.55305352608598
106.38399589051298
103.07708780223706
101.42553998553082
100.65384567045017
100.31495929137391
100.17443887534263
100.11917096476223
100.09846780167562
100.09106940385084
100.08859851498684
100.08802271336857
100.08859851481775
100.09106940329312
100.09846781410937
100.11917100057885
100.17443876726965
100.31495938391906
100.65384617854362
101.42553985558733
103.07709009801516
106.38399286638683
112.55305675440529
123.23804287900714
140.37980763422007
165.83105546869243
200.8450036124429
200.97056787284473
165.96108987116511
140.51335566625423
123.37415369161909
112.69091770425034
106.52300925636563
103.21680692337782
101.56566742199324
100.7941957711097
100.45542396759748
100.314959272105
100.25971702203822
100.23902506924732
100.23163130974213
100.22916218477164
100.22858683080159
100.2291621846026
100.23163130918476
100.23902508167397
100.2597170578373
100.31495916407843
100.45542406010891
100.79419627904687
101.56566729208856
103.21680921863334
106.52300623285186
112.69092093200796
123.37414405870689
140.51335862184385
165.9611229975787
200.97056756525384
201.2741654269852
166.27554277272742
140.83613657125824
123.70296505737257
113.02384134752002
106.85857005551541
103.5539573009126
101.90371858065602
101.13272727670693
100.79419688076824
100.65384676119963
100.59865598834675
100.577985978037
100.57060108385353
100.56813525961236
100.56756073184577
100.56813525944362
100.57060108329698
100.57798599044987
100.5986560241108
100.65384665326746
100.79419697320932
101.13272778431016
101.90371845083459
103.55395959500201
106.85856703339077
113.0238445739771
123.70295542802145
140.8361395258505
166.27557588859497
201.27416511946714
201.96720529510085
166.9932854010738
141.57267420305894
124.4529622101372
113.78289032155803
107.62332909558408
104.32209425095799
102.67373063316491
101.90371740449527
101.56566735322318
101.42553989751204
101.37044682083908
101.34981749087919
101.34244866685077
101.33998870743174
101.33941562864506
101.33998870726349
101.34244866629548
101.34981750326666
101.37044685653734
101.42553978976096
101.56566744552592
101.90371791142483
102.67373050351227
104.32209654259131
107.62332607643314
113.78289354517223
124.45295258867495
141.57267715541204
166.99331849304073
201.96720498775795
203.4538790407923
168.53278633275923
143.15203830372965
126.06055906715258
115.4092141656042
109.26127542471866
105.96679060387439
104.32209934835085
103.55396123064563
103.21681196030642
103.07709282114533
103.02217494908864
103.00161699805476
102.99427578866981
102.99182572243798
102.99125505843556
102.99182572227038
102.99427578811677
103.00161701039787
103.0221749846697
103.07709271372242
103.21681205235247
103.55396173629524
104.32209921902012
105.96679289064306
109.26127241155267
115.40921738337906
126.06054946211496
143.15204125135682
168.5328193738219
203.4538787338429
206.4370417315659
171.62163455801604
146.31999904050943
129.28395014077694
118.66888327792384
112.54310820149352
109.26126998836716
107.62332872477445
106.85856851649967
106.52300881672939
106.38399543169513
106.3293742516823
106.30893478889915
106.30163855871004
106.2992043384754
106.29863749984436
106.29920433830894
106.30163855816049
106.30893480116944
106.32937428706651
106.38399532483342
106.52300890832687
106.85856901986273
107.62332859602103
109.26127226609775
112.54310519961771
118.66888648446404
129.2839405677511
146.3200019788007
171.6216674976406
206.43704142543876
212.01291948603026
177.39449394684527
152.23919876588565
135.3046447873557
124.75517101233665
118.66888270376282
115.40920819083283
113.78288937630845
113.02383924256387
112.69091669006637
112.55305249279066
112.4989056404934
112.47865227638655
112.47142551350902
112.46901540522032
112.4684543307152
112.4690154050555
112.47142551296473
112.4786522885431
112.49890567556479
112.55305238683442
112.69091678092651
113.02383974209086
113.782889248527
115.40921045284576
118.66887972179941
124.75517419869422
135.30463527253843
152.23920168698072
177.39452669810353
212.0129191814933
221.686765783167
187.40921948000172
162.50542885190643
145.7436985951682
135.30464391832933
129.283948698433
126.06055228260229
124.45296039681283
123.70296209778282
123.37415180930147
123.23805061213181
123.18461994292184
123.16464329068961
123.15751833354344
123.155143111899
123.15459030698943
123.15514311173678
123.15751833300708
123.16464330267787
123.18461997752392
123.23805050755354
123.37415189902083
123.70296259126872
124.4529602705668
126.06055451906462
129.2839457492483
135.30464707090826
145.74368917883885
162.50543174355903
187.40925190638117
221.6867654814655
237.22812154831
203.49700115421123
178.9939715297125
162.5054276415714
152.23919668864158
146.31999639251404
143.15203040273042
141.57267118510958
140.83613242701566
140.51335257939914
140.37980157257527
140.32739315607026
140.30780644846178
140.30082323457873
140.29849606893933
140.29795457492486
140.29849606878034
140.300823234053
140.30780646021438
140.3273931900054
140.37980146997697
140.5133526674562
140.83613291156865
141.57267106113972
143.1520326003804
146.319993493657
152.23919978861477
162.50541838006697
178.99397437459976
203.49703306131684
237.2281212512625
260.3287054466144
227.40833977684483
203.49706469300307
187.40928287218654
177.39455714070073
171.6216975706876
168.53284442669514
166.99334835708768
166.2756046790837
165.96115282886177
165.83108528607065
165.78005845486197
165.7609934046141
165.75419799084804
165.75193395381336
165.75140723404056
165.7519339536586
165.75419799033665
165.76099341605254
165.78005848789925
165.83108518616257
165.96115291463508
166.27560515121752
166.9933482362888
168.53284656920962
171.6216947439426
177.39456016442733
187.40927383678934
203.49706746901435
227.40837091528135
260.32870515659357
292.134218886782
260.3286478287693
237.22812389404956
221.68676702671894
212.01291993722907
206.43704165955307
203.45387403119787
201.96720488699262
201.27416396129536
200.9705674028079
200.84500343274354
200.79574858719116
200.77734748173086
200.77078935985432
200.76860457295598
200.7680963203436
200.76860457280685
200.77078935936075
200.77734749277042
200.7957486190798
200.84500333629973
200.9705674856161
201.2741644171604
201.96720477035393
203.4538761003141
206.4370389294239
212.01292285792402
221.68675829857912
237.22812657587272
260.32867791210543
292.1342186065413
