# vtk DataFile Version 2.0
Unstructured Grid Example
ASCII
DATASET UNSTRUCTURED_GRID

POINTS 961 float
0.100000001 0.00499999989 0
0.0966666639 0.00499999989 0
0.0933333337 0.00499999989 0
0.0900000036 0.00499999989 0
0.086666666 0.00499999989 0
0.0833333358 0.00499999989 0
0.0799999982 0.00499999989 0
0.0766666681 0.00499999989 0
0.0733333305 0.00499999989 0
0.0700000003 0.00499999989 0
0.0666666701 0.00499999989 0
0.0633333325 0.00499999989 0
0.0599999987 0.00499999989 0
0.0566666685 0.00499999989 0
0.0533333346 0.00499999989 0
0.0500000007 0.00499999989 0
0.0466666669 0.00499999989 0
0.043333333 0.00499999989 0
0.0399999991 0.00499999989 0
0.0366666652 0.00499999989 0
0.0333333351 0.00499999989 0
0.0299999993 0.00499999989 0
0.0266666673 0.00499999989 0
0.0233333334 0.00499999989 0
0.0199999996 0.00499999989 0
0.0166666675 0.00499999989 0
0.0133333337 0.00499999989 0
0.00999999978 0.00499999989 0
0.00666666683 0.00499999989 0
0.00333333341 0.00499999989 0
0 0.00499999989 0
0.100000001 0.00166666671 0
0.0966666639 0.00166666671 0
0.0933333337 0.00166666671 0
0.0900000036 0.00166666671 0
0.086666666 0.00166666671 0
0.0833333358 0.00166666671 0
0.0799999982 0.00166666671 0
0.0766666681 0.00166666671 0
0.0733333305 0.00166666671 0
0.0700000003 0.00166666671 0
0.0666666701 0.00166666671 0
0.0633333325 0.00166666671 0
0.0599999987 0.00166666671 0
0.0566666685 0.00166666671 0
0.0533333346 0.00166666671 0
0.0500000007 0.00166666671 0
0.0466666669 0.00166666671 0
0.043333333 0.00166666671 0
0.0399999991 0.00166666671 0
0.0366666652 0.00166666671 0
0.0333333351 0.00166666671 0
0.0299999993 0.00166666671 0
0.0266666673 0.00166666671 0
0.0233333334 0.00166666671 0
0.0199999996 0.00166666671 0
0.0166666675 0.00166666671 0
0.0133333337 0.00166666671 0
0.00999999978 0.00166666671 0
0.00666666683 0.00166666671 0
0.00333333341 0.00166666671 0
0 0.00166666671 0
0.100000001 -0.00166666671 0
0.0966666639 -0.00166666671 0
0.0933333337 -0.00166666671 0
0.0900000036 -0.00166666671 0
0.086666666 -0.00166666671 0
0.0833333358 -0.00166666671 0
0.0799999982 -0.00166666671 0
0.0766666681 -0.00166666671 0
0.0733333305 -0.00166666671 0
0.0700000003 -0.00166666671 0
0.0666666701 -0.00166666671 0
0.0633333325 -0.00166666671 0
0.0599999987 -0.00166666671 0
0.0566666685 -0.00166666671 0
0.0533333346 -0.00166666671 0
0.0500000007 -0.00166666671 0
0.0466666669 -0.00166666671 0
0.043333333 -0.00166666671 0
0.0399999991 -0.00166666671 0
0.0366666652 -0.00166666671 0
0.0333333351 -0.00166666671 0
0.0299999993 -0.00166666671 0
0.0266666673 -0.00166666671 0
0.0233333334 -0.00166666671 0
0.0199999996 -0.00166666671 0
0.0166666675 -0.00166666671 0
0.0133333337 -0.00166666671 0
0.00999999978 -0.00166666671 0
0.00666666683 -0.00166666671 0
0.00333333341 -0.00166666671 0
0 -0.00166666671 0
0.100000001 -0.00499999989 0
0.0966666639 -0.00499999989 0
0.0933333337 -0.00499999989 0
0.0900000036 -0.00499999989 0
0.086666666 -0.00499999989 0
0.0833333358 -0.00499999989 0
0.0799999982 -0.00499999989 0
0.0766666681 -0.00499999989 0
0.0733333305 -0.00499999989 0
0.0700000003 -0.00499999989 0
0.0666666701 -0.00499999989 0
0.0633333325 -0.00499999989 0
0.0599999987 -0.00499999989 0
0.0566666685 -0.00499999989 0
0.0533333346 -0.00499999989 0
0.0500000007 -0.00499999989 0
0.0466666669 -0.00499999989 0
0.043333333 -0.00499999989 0
0.0399999991 -0.00499999989 0
0.0366666652 -0.00499999989 0
0.0333333351 -0.00499999989 0
0.0299999993 -0.00499999989 0
0.0266666673 -0.00499999989 0
0.0233333334 -0.00499999989 0
0.0199999996 -0.00499999989 0
0.0166666675 -0.00499999989 0
0.0133333337 -0.00499999989 0
0.00999999978 -0.00499999989 0
0.00666666683 -0.00499999989 0
0.00333333341 -0.00499999989 0
0 -0.00499999989 0
0.100000001 -0.00833333377 0
0.0966666639 -0.00833333377 0
0.0933333337 -0.00833333377 0
0.0900000036 -0.00833333377 0
0.086666666 -0.00833333377 0
0.0833333358 -0.00833333377 0
0.0799999982 -0.00833333377 0
0.0766666681 -0.00833333377 0
0.0733333305 -0.00833333377 0
0.0700000003 -0.00833333377 0
0.0666666701 -0.00833333377 0
0.0633333325 -0.00833333377 0
0.0599999987 -0.00833333377 0
0.0566666685 -0.00833333377 0
0.0533333346 -0.00833333377 0
0.0500000007 -0.00833333377 0
0.0466666669 -0.00833333377 0
0.043333333 -0.00833333377 0
0.0399999991 -0.00833333377 0
0.0366666652 -0.00833333377 0
0.0333333351 -0.00833333377 0
0.0299999993 -0.00833333377 0
0.0266666673 -0.00833333377 0
0.0233333334 -0.00833333377 0
0.0199999996 -0.00833333377 0
0.0166666675 -0.00833333377 0
0.0133333337 -0.00833333377 0
0.00999999978 -0.00833333377 0
0.00666666683 -0.00833333377 0
0.00333333341 -0.00833333377 0
0 -0.00833333377 0
0.100000001 -0.0116666667 0
0.0966666639 -0.0116666667 0
0.0933333337 -0.0116666667 0
0.0900000036 -0.0116666667 0
0.086666666 -0.0116666667 0
0.0833333358 -0.0116666667 0
0.0799999982 -0.0116666667 0
0.0766666681 -0.0116666667 0
0.0733333305 -0.0116666667 0
0.0700000003 -0.0116666667 0
0.0666666701 -0.0116666667 0
0.0633333325 -0.0116666667 0
0.0599999987 -0.0116666667 0
0.0566666685 -0.0116666667 0
0.0533333346 -0.0116666667 0
0.0500000007 -0.0116666667 0
0.0466666669 -0.0116666667 0
0.043333333 -0.0116666667 0
0.0399999991 -0.0116666667 0
0.0366666652 -0.0116666667 0
0.0333333351 -0.0116666667 0
0.0299999993 -0.0116666667 0
0.0266666673 -0.0116666667 0
0.0233333334 -0.0116666667 0
0.0199999996 -0.0116666667 0
0.0166666675 -0.0116666667 0
0.0133333337 -0.0116666667 0
0.00999999978 -0.0116666667 0
0.00666666683 -0.0116666667 0
0.00333333341 -0.0116666667 0
0 -0.0116666667 0
0.100000001 -0.0149999997 0
0.0966666639 -0.0149999997 0
0.0933333337 -0.0149999997 0
0.0900000036 -0.0149999997 0
0.086666666 -0.0149999997 0
0.0833333358 -0.0149999997 0
0.0799999982 -0.0149999997 0
0.0766666681 -0.0149999997 0
0.0733333305 -0.0149999997 0
0.0700000003 -0.0149999997 0
0.0666666701 -0.0149999997 0
0.0633333325 -0.0149999997 0
0.0599999987 -0.0149999997 0
0.0566666685 -0.0149999997 0
0.0533333346 -0.0149999997 0
0.0500000007 -0.0149999997 0
0.0466666669 -0.0149999997 0
0.043333333 -0.0149999997 0
0.0399999991 -0.0149999997 0
0.0366666652 -0.0149999997 0
0.0333333351 -0.0149999997 0
0.0299999993 -0.0149999997 0
0.0266666673 -0.0149999997 0
0.0233333334 -0.0149999997 0
0.0199999996 -0.0149999997 0
0.0166666675 -0.0149999997 0
0.0133333337 -0.0149999997 0
0.00999999978 -0.0149999997 0
0.00666666683 -0.0149999997 0
0.00333333341 -0.0149999997 0
0 -0.0149999997 0
0.100000001 -0.0183333326 0
0.0966666639 -0.0183333326 0
0.0933333337 -0.0183333326 0
0.0900000036 -0.0183333326 0
0.086666666 -0.0183333326 0
0.0833333358 -0.0183333326 0
0.0799999982 -0.0183333326 0
0.0766666681 -0.0183333326 0
0.0733333305 -0.0183333326 0
0.0700000003 -0.0183333326 0
0.0666666701 -0.0183333326 0
0.0633333325 -0.0183333326 0
0.0599999987 -0.0183333326 0
0.0566666685 -0.0183333326 0
0.0533333346 -0.0183333326 0
0.0500000007 -0.0183333326 0
0.0466666669 -0.0183333326 0
0.043333333 -0.0183333326 0
0.0399999991 -0.0183333326 0
0.0366666652 -0.0183333326 0
0.0333333351 -0.0183333326 0
0.0299999993 -0.0183333326 0
0.0266666673 -0.0183333326 0
0.0233333334 -0.0183333326 0
0.0199999996 -0.0183333326 0
0.0166666675 -0.0183333326 0
0.0133333337 -0.0183333326 0
0.00999999978 -0.0183333326 0
0.00666666683 -0.0183333326 0
0.00333333341 -0.0183333326 0
0 -0.0183333326 0
0.100000001 -0.0216666665 0
0.0966666639 -0.0216666665 0
0.0933333337 -0.0216666665 0
0.0900000036 -0.0216666665 0
0.086666666 -0.0216666665 0
0.0833333358 -0.0216666665 0
0.0799999982 -0.0216666665 0
0.0766666681 -0.0216666665 0
0.0733333305 -0.0216666665 0
0.0700000003 -0.0216666665 0
0.0666666701 -0.0216666665 0
0.0633333325 -0.0216666665 0
0.0599999987 -0.0216666665 0
0.0566666685 -0.0216666665 0
0.0533333346 -0.0216666665 0
0.0500000007 -0.0216666665 0
0.0466666669 -0.0216666665 0
0.043333333 -0.0216666665 0
0.0399999991 -0.0216666665 0
0.0366666652 -0.0216666665 0
0.0333333351 -0.0216666665 0
0.0299999993 -0.0216666665 0
0.0266666673 -0.0216666665 0
0.0233333334 -0.0216666665 0
0.0199999996 -0.0216666665 0
0.0166666675 -0.0216666665 0
0.0133333337 -0.0216666665 0
0.00999999978 -0.0216666665 0
0.00666666683 -0.0216666665 0
0.00333333341 -0.0216666665 0
0 -0.0216666665 0
0.100000001 -0.0250000004 0
0.0966666639 -0.0250000004 0
0.0933333337 -0.0250000004 0
0.0900000036 -0.0250000004 0
0.086666666 -0.0250000004 0
0.0833333358 -0.0250000004 0
0.0799999982 -0.0250000004 0
0.0766666681 -0.0250000004 0
0.0733333305 -0.0250000004 0
0.0700000003 -0.0250000004 0
0.0666666701 -0.0250000004 0
0.0633333325 -0.0250000004 0
0.0599999987 -0.0250000004 0
0.0566666685 -0.0250000004 0
0.0533333346 -0.0250000004 0
0.0500000007 -0.0250000004 0
0.0466666669 -0.0250000004 0
0.043333333 -0.0250000004 0
0.0399999991 -0.0250000004 0
0.0366666652 -0.0250000004 0
0.0333333351 -0.0250000004 0
0.0299999993 -0.0250000004 0
0.0266666673 -0.0250000004 0
0.0233333334 -0.0250000004 0
0.0199999996 -0.0250000004 0
0.0166666675 -0.0250000004 0
0.0133333337 -0.0250000004 0
0.00999999978 -0.0250000004 0
0.00666666683 -0.0250000004 0
0.00333333341 -0.0250000004 0
0 -0.0250000004 0
0.100000001 -0.0283333343 0
0.0966666639 -0.0283333343 0
0.0933333337 -0.0283333343 0
0.0900000036 -0.0283333343 0
0.086666666 -0.0283333343 0
0.0833333358 -0.0283333343 0
0.0799999982 -0.0283333343 0
0.0766666681 -0.0283333343 0
0.0733333305 -0.0283333343 0
0.0700000003 -0.0283333343 0
0.0666666701 -0.0283333343 0
0.0633333325 -0.0283333343 0
0.0599999987 -0.0283333343 0
0.0566666685 -0.0283333343 0
0.0533333346 -0.0283333343 0
0.0500000007 -0.0283333343 0
0.0466666669 -0.0283333343 0
0.043333333 -0.0283333343 0
0.0399999991 -0.0283333343 0
0.0366666652 -0.0283333343 0
0.0333333351 -0.0283333343 0
0.0299999993 -0.0283333343 0
0.0266666673 -0.0283333343 0
0.0233333334 -0.0283333343 0
0.0199999996 -0.0283333343 0
0.0166666675 -0.0283333343 0
0.0133333337 -0.0283333343 0
0.00999999978 -0.0283333343 0
0.00666666683 -0.0283333343 0
0.00333333341 -0.0283333343 0
0 -0.0283333343 0
0.100000001 -0.0316666663 0
[...]
POINT_DATA 961
SCALARS Temp float 1
LOOKUP_TABLE default
293.0793665151948
260.3735863925598
236.32646720762685
220.16307337139918
210.13418634425636
204.38513057035212
201.3312499883576
199.82217946091953
199.12529393539427
198.8230737700363
198.69938149197816
198.65137482499716
198.6336301939818
198.6273693664165
198.62529192252376
198.62477317891384
198.6251210453056
198.62679823029515
198.63193958735985
198.64660389259964
198.68651389580828
198.79002089596702
199.0447814125999
199.63706168761664
200.93140227345575
203.57746929773432
208.6150231819486
217.51152842569383
232.04847078163615
253.9926335790517
284.98198755804833
262.84161894400177
228.47122493202826
203.5416780100041
186.72521683198588
176.25310064963858
170.22330373018775
167.00504645523284
165.4069807726912
164.66542054675656
164.3423176452408
164.20948795909942
164.15771787260107
164.13850748925438
164.13170536670717
164.12944094958812
164.12887437434216
164.12925458777966
164.13108399404925
164.1366751574502
164.1525667364394
164.19565382953502
164.30694489593125
164.57968111934915
165.21086967383272
166.5837498921558
169.3769974446159
174.66970640309316
183.97493564661087
199.11347715519537
221.89717455548893
253.4323281459197
240.5015252768951
205.39137632751272
179.79507621762912
162.5203014928812
151.73389381070493
145.5032631340252
142.1659214571449
140.5025070304011
139.72769389567304
139.38883890716286
139.2490285901455
139.19434940383445
139.173993020474
139.16676295596906
139.16434969803151
139.16374489074514
139.16415154206123
139.16610407967588
139.17205640221133
139.188925904311
139.23452321121698
139.35191603313743
139.63862943265974
140.2998446649836
141.73292832002258
144.63835646318404
150.1247027937831
159.73852769128942
175.33171825802765
198.69718648997213
231.10166721455457
225.34419250679548
189.80073892539454
163.83864228788494
146.27704367141584
135.29037237152633
128.92887353024193
125.51236618219028
123.80464841894201
123.006862651085
122.65692831146362
122.51212434760616
122.45533111736205
122.4341295803517
122.4265795288994
122.4240537320887
122.42341994995449
122.42384730032276
122.4258948846175
122.43212345619062
122.449733640819
122.49721325515438
122.61913653000555
122.91612916660995
123.59923605735966
125.07589511598056
128.06210861849067
133.68758782906363
143.5239595317092
159.44641667754522
183.28674611245185
216.3412280137941
215.7961586447256
180.04064553296567
153.8926396260966
136.1795769783241
125.079951577986
118.64184707938179
115.17750127742165
113.44225284450671
112.6298221220534
112.27265609750454
112.12452077747977
112.06628860784488
112.04450099254294
112.03672519358058
112.03411889059417
112.03346432100075
112.03390717766868
112.03602468655714
112.0424542532107
112.06059714862417
112.10941468585919
112.23452160240217
112.5386603859227
113.236844617385
114.74330173439044
117.78454666925732
123.50492867130268
133.49427164255724
149.6501094182892
173.82754431093764
207.3423947375528
210.20858670949931
174.3679750297443
148.14065941782488
130.35829613713975
119.20350776535251
112.72564852695223
109.23529792112886
107.48448759163658
106.6634924643056
106.30196676535675
106.15176706322438
106.09262062532353
106.07045198727545
106.06252632222736
106.05986566266799
106.05919702526326
106.05965098916113
106.0618174823717
106.0683860611003
106.0868925477521
106.13661120862724
106.26383535306441
106.57267159541304
107.28067074488226
108.80639160050127
111.88310818194807
117.6647814503592
127.75383762878317
144.06258666146235
168.46087071271347
202.27488955553585
207.1632891323246
171.29961493975622
145.04657011473694
127.23837088550422
116.06068109505377
109.56487160199612
106.06196078976568
104.30321986853104
103.47766008252403
103.11371900554785
102.96233576135114
102.90264886837193
102.88024866338584
102.87222961582711
102.86953439982719
102.86885681233767
102.86931838421651
102.87151754055867
102.87817748537422
102.89691946336147
102.94721334243323
103.07577056991298
103.38752819519713
104.10156933506441
105.63906230441762
108.73737054900867
114.5563372665725
124.70604433674465
141.10756469690733
165.6389924375249
199.63195958282196
205.6125091889466
169.7496573305431
143.49302029253124
125.67830221030376
114.49313128524267
107.99050427756679
104.48231031745374
102.71997030041636
101.8922114800271
101.52704781179021
101.37503957155674
101.31505648726092
101.29252510335047
101.28445157966736
101.28173572883743
101.28105280954635
101.28151936648703
101.28373925449408
101.29045627312817
101.30934303351766
101.35998508713975
101.4893374789243
101.80281485242105
102.5203732698328
104.06465865881684
107.17534145522765
113.01555383823987
123.19958313235895
139.6531685208122
164.2586200768604
198.35014879936332
204.87176417573164
169.01548699561476
142.76185928862617
124.9474000393668
113.76086100004092
107.25627350236468
103.7462263162574
101.98246348459809
101.15375911520466
100.78803457206706
100.63572400154335
100.57559103587367
100.5529906075844
100.54488741061444
100.54216001627381
100.54147413780099
100.54194382130285
100.54417623853124
100.5509271560387
100.56989845900269
100.62074047577592
100.7505424459672
101.06497829917599
101.78447202265282
103.3324522284576
106.44979444491442
112.30131753590729
122.50341242933023
138.98408074227268
163.62759468778228
197.76927464328813
204.53848457180425
168.68796544022933
142.4378551037044
124.62508861691953
113.43899905739693
106.93418527072527
103.4236658240687
101.65943745025794
100.8303788188892
100.46442409764656
100.31198062180367
100.25177799726725
100.22914393371595
100.22102569088511
100.21829226476062
100.2176048668654
100.21807642849367
100.22031605934558
100.22708613148833
100.24610435084546
100.2970553969015
100.42709839384867
100.74203998406847
101.46253960716963
103.01241259844613
106.13311769651636
111.99027048362265
122.20122822981264
138.69499897062695
163.3566922073243
197.52205983662935
204.39663249279118
168.54974210181007
142.30204881340126
124.49068606145168
113.30526308203234
106.80065774343704
103.2901146565824
101.52578022707964
100.69661245069956
100.33057537100832
100.17807950883663
100.1178473852016
100.0951982343889
100.08707291683632
100.08433655750679
100.08364844545592
100.08412108809038
100.08636467800252
100.0931450532939
100.11218803121035
100.16319554361387
100.2933611022909
100.60855532640959
101.3295487552554
102.88033505124724
106.00263522151428
111.86241352440877
122.07743793688606
138.57713052256545
163.24693063734074
197.4227419599496
204.33927676331407
168.49431788154615
142.24796798124083
124.43744955747003
113.2524937126491
106.74810398529524
103.23763142982844
101.47329830241797
100.6441080690386
100.27804687886913
100.12553299506209
100.06528964323168
100.04263430980616
100.03450592317789
100.03176824258055
100.03107982859048
100.0315530672407
100.03379872932899
100.04058438250335
100.05963978984155
100.11067508816733
100.24089977184755
100.55621350098552
101.27743601002668
102.82863788776682
105.95165022315021
111.81257952787274
122.0293564577105
138.53156180034023
163.2047557462265
197.3848904676036
204.31716500936213
168.47312270538274
142.22742768044316
124.41733991703376
113.23264098443187
106.7283870383527
103.21797509860173
101.4536618732709
100.62447314026444
100.25840736347246
100.1058883984277
100.04564129749487
100.0229836745331
100.01485406630935
100.01211583673748
100.01142731106454
100.01190086364491
100.0141475594543
100.02093578653977
100.0399971286497
100.09104541675518
100.22129716212532
100.53666444809856
101.25798749365812
102.80936804248873
105.93268052482195
111.79408588445283
122.01157522715687
138.51478642456044
163.1893210962026
197.37114507151418
204.30903313978203
168.46538754255232
142.21998110255785
124.41008884175396
113.22551201348861
106.72132740803227
103.21095046985234
101.44665223166439
100.61746826032278
100.25140286744053
100.098882923159
100.03863475904359
100.01597637141558
100.00784631386306
100.00510787167505
100.0044193101451
100.00489301835623
100.00714020207243
100.01392961687083
100.03299363924013
100.08404766796096
100.21431111490223
100.52970106213398
101.25106574641636
102.8025187706935
105.92595061113401
111.78754181346581
122.0053046442827
138.50889632292987
163.18393180948468
197.36638037202403
204.3062582691687
168.46276571770827
142.21747175107114
124.40765699360617
113.22312979643364
106.71897440781892
103.20861302147253
101.4443220447384
100.61514084569961
100.24907611618464
100.09655603647967
100.03630755396237
100.01364889384857
100.00551866096136
100.00278013082134
100.00209155389825
100.00256532907312
100.00481272098806
100.01160263381043
100.03066775733488
100.08172409552581
100.21199215249561
100.52739084570742
101.24877128170128
102.80025120184246
105.92372654317043
111.78538435867593
122.00324376158568
138.5069680459457
163.18217613607547
197.36483804277552
204.30565485320662
168.46219738086324
142.21692859102737
124.40713039977041
113.2226130625256
106.71846277545716
103.20810346753129
101.44381289742003
100.61463135477655
100.24856607157601
100.09604548774232
100.03579663648716
100.01313774117347
100.00500737390408
100.00226877622745
100.00158017528848
100.00205396162471
100.00430140967173
100.011091459075
100.0301568768574
100.08121381405904
100.2114830346111
100.52688388363292
101.24826812388348
102.79975442702862
105.9232399383725
111.78491312874833
122.00279457964646
138.50654886181516
163.18179572484146
197.36450505173096
204.30649646785548
168.46298807923716
142.21767813727985
124.40784799047843
113.22330671029493
106.7191391638295
103.20876791556685
101.44446943801526
100.61528289340407
100.24921459390501
100.09669227827794
100.03644248095218
100.0137830940971
100.00565248354559
100.00291376982825
100.0022251119229
100.00269885937519
100.0049462520928
100.01173618031989
100.03080131839337
100.08185763941897
100.21212558369257
100.52752395130652
101.24890365755056
102.80038216659266
105.92385505742625
111.78550897405017
122.00336262561083
138.5070789808151
163.18227679418962
197.36492621784265
204.30980126813128
168.46610804269523
142.22065222417382
124.41071120849963
113.22608911518745
106.7218652110683
103.21145644105744
101.44713416041216
100.61793324733524
100.25185670461507
100.09932989616973
100.03907777191037
100.01641723941857
100.00828609056373
100.00554712968801
100.00485834632411
100.00533198645932
100.00757918950254
100.0143686801422
100.03343280362795
100.08448688564648
100.21475016717376
100.53013939157229
101.25150221490611
102.80295136546692
105.92637615207403
111.7879557429488
122.00570098899952
138.50926789548603
163.18427067402584
197.36667844806882
204.31933852379444
168.4751750822864
142.22934778285818
124.4191251102142
113.23429865132591
106.72993324215274
103.21943119416031
101.45505049939446
100.62581488289176
100.25971880391614
100.10718157614082
100.04692418408175
100.02426112537344
100.01612882256018
100.01338934717029
100.0127003090073
100.01317372834362
100.01542052322624
100.02220903692921
100.04127082354829
100.09231959365384
100.22257149108547
100.53793777162201
101.25925712171498
102.8106288512228
105.93392401160824
111.79529943188462
122.01274186666753
138.51588532788065
163.19032886659144
197.37203774706367
204.3451268472851
168.499881228696
142.25319623139188
124.44232227474119
113.25702357653401
106.75233224503772
103.24161667051536
101.47710348963786
100.64779013307992
100.28165095862994
100.12909115730537
100.06882258023948
100.04615427410957
100.03801963052369
100.0352791390542
100.03458961545931
100.03506262459732
100.03730864198923
100.0440952201905
100.06315219809026
100.11418963500867
100.2444163896202
100.55973031774657
101.28094741634078
102.83213191541553
105.95510564996967
111.8159634682626
122.03262335283073
138.5346545515507
163.2076092438246
197.3874371691792
204.4116829208375
168.56416018970464
142.31565763729722
124.50339568883957
113.31708718105489
106.81169862870188
103.30052766917167
101.53573385202449
100.70625754018329
100.34002927264193
100.18742357317527
100.12713267398364
100.10445410481107
100.09631498131218
100.09357259288342
100.09288219730924
100.09335449907167
100.0955991520649
100.10238219048128
100.12143000379564
100.17244497597015
100.30261998884
100.61782231215243
101.33881415989747
102.88957363361527
106.01179773083916
111.87141923971956
122.08617097682146
138.58544221790882
163.25464881330356
197.42968588434724
204.57538901140694
168.72358377060402
142.47161126322558
124.65666369431904
113.46838031777398
106.96161903811252
103.44954970759214
101.6842038975363
100.85440948687368
100.48800930092185
100.3353163140195
100.27498365944028
100.25228623325665
100.24413903517937
100.24139330284694
100.24070142954947
100.24117259738004
100.243415043001
100.25019210090085
100.26922373046777
100.32019733250944
100.4502731813512
100.76525343447557
101.48578115079403
103.03563640820788
106.15621921402227
112.01306448711716
122.22343666606348
138.7162553747743
163.3765648960995
197.54009104106726
204.95768063861235
169.09902588210338
142.84131909110476
125.0217941838536
113.83005682847471
107.32084915737421
103.80716107111189
102.04081707802841
101.21044902313581
100.8437411712939
100.69089368908742
100.63048808863468
100.60775819202175
100.59959730745449
100.59684601303731
100.59615177769754
100.59662126439243
100.59886044841876
100.60562824625441
100.62463357087498
100.67553681279486
100.8054366575822
101.12000669834089
101.83964459642178
103.38770633179358
106.50493272712556
112.35594649647526
122.55690544828161
139.03558532023217
163.67608908236033
197.81366226358745
205.80161625413032
169.9348683410208
143.66972052255508
125.84375722570242
114.6468454822488
108.13380524286067
104.61750805670778
102.8495303644565
102.01821803830867
101.65100415904365
101.49790383967292
101.43737975258108
101.41459760144035
101.40641493217593
101.40365491289042
101.40295711772318
101.40342431899568
101.40565917418137
101.41241399946706
101.43138034069277
101.48217389743813
101.61178632037458
101.92565709414707
102.64371664200847
104.1884792852851
107.29932756843054
113.13894103717432
123.3210491427943
139.77084499605448
164.3702301215365
198.453230756298
207.55527437693488
171.68615867794298
145.41615091381567
127.5841224332509
116.38124201931466
109.8632290503886
106.34330631784484
104.57296715107988
103.7402593958845
103.37228887196487
103.21880849872963
103.15810611110525
103.13524548390144
103.12703025464141
103.12425731889279
103.1235544625797
103.1240188567067
103.12624872229091
103.13298748818255
103.15190195675561
103.20254047591278
103.33172467606211
103.64450337086913
104.3599896249149
105.89915836430805
108.99880614247039
114.8177821021877
124.96488855462044
141.3599426157941
165.88013011320336
199.85668692915013
210.9709377447809
175.1243920166314
148.86459079080967
131.03408379796156
119.8281393663038
113.30570048567455
109.78180872215975
108.00860246591282
107.17409575590843
106.80511311147478
106.65111244457171
106.5901624349578
106.56719193642488
106.55893097984564
106.5561399725085
106.55543032046016
106.55589168473514
106.55811695467649
106.56483900053416
106.58369312640582
106.63413606783367
106.76274426307977
107.07397255735862
107.78562789259401
109.31610594638569
112.39767192537663
118.18220736766662
128.26928375498102
144.5684431566479
168.94767828190402
202.73255792847345
217.18332796681426
181.4240183034481
155.21572143019463
137.40994166446808
126.21240881202763
119.69042763943115
116.16424171705394
114.38849066973285
113.55207662250736
113.18191379707393
113.02727121267685
112.96600479266394
112.9428908016234
112.9345693575899
112.93175438508824
112.93103609415988
112.93149476881972
112.9337176881943
112.94042714092475
112.95922349568804
113.00945248658981
113.13737195332656
113.44661829252823
114.15310112806222
115.6712783359794
118.72615743002241
124.45791345813333
134.45013705542212
150.59424770439063
174.74209912121668
208.20912271052063
227.70198356622336
192.16054174448817
166.08801750268586
148.3565478548045
137.1940021960813
130.68564130247245
127.16277228567685
125.38646969835108
124.54867136508105
124.17737135880814
124.02202611259975
123.96038859791857
123.9370993682082
123.9287022489775
123.92585702332865
123.92512829399894
123.92558542806168
123.92781083841267
123.93451895315714
123.9532781934709
124.00331705026751
124.1305236280435
124.43751593293784
125.1377033793539
126.64008205672587
129.6590837301256
135.31695678539143
145.1711464110662
161.08360333070516
184.88000147578018
217.8614494339192
244.2518300182995
209.1427293832896
183.34660201639474
165.77254599474767
154.69514637943038
148.2259532883035
144.71786322998364
142.94547298912482
142.10775541927288
141.7356848946718
141.57967564759767
141.5176390449345
141.49414863682424
141.4856613999105
141.48277960145376
141.48203881085806
141.48249650447897
141.4847322699473
141.49145890081155
141.5102246448815
141.56015468029148
141.68675808186234
141.9915089930761
142.6848192532846
144.1687816314335
147.14382097935155
152.70725965604328
162.37829117651006
177.96731399947782
201.26688656641318
233.5573898498833
268.43092526167123
234.07312422034943
208.71063055826326
191.43176238239147
180.51773372235525
174.12775152196897
170.65253875778797
168.89130111761236
168.05618706852354
167.6840796695854
167.52756058297547
167.4651295000093
167.44141990555931
167.43282961347143
167.42990515862653
167.42915090728582
167.429612183914
167.43186906984593
167.4386424399842
167.4574813711947
167.50744372399157
167.6337003791505
167.93655780807046
168.62311901664873
170.0874276086077
173.01286024408444
178.4652996272405
187.91335620253795
203.0989154661048
225.69754158715756
257.0849245844232
301.6355576147806
267.8740518119479
243.2890618856481
226.48626826338094
215.83864469366225
209.5795630036349
206.16062835231654
204.4200004869916
203.59086398474773
203.21975402068472
203.0629762716278
203.00018312265166
202.9762436902086
202.96753924952813
202.96456614403678
202.96379728143563
202.96426585760122
202.96655674032095
202.97341124140198
202.99240672101655
203.04258747559774
203.16886451760317
203.4704390562672
204.15096244189272
205.5956000996627
208.46821511923406
213.79774985689468
222.9931421818361
237.7110561782279
259.55242596016575
289.2607295542569
