# vtk DataFile Version 2.0
Unstructured Grid Example
ASCII
DATASET UNSTRUCTURED_GRID

POINTS 961.0 float
0.100000001 0.00499999989 0
0.0966666639 0.00499999989 0
0.0933333337 0.00499999989 0
0.0900000036 0.00499999989 0
0.086666666 0.00499999989 0
0.0833333358 0.00499999989 0
0.0799999982 0.00499999989 0
0.0766666681 0.00499999989 0
0.0733333305 0.00499999989 0
0.0700000003 0.00499999989 0
0.0666666701 0.00499999989 0
0.0633333325 0.00499999989 0
0.0599999987 0.00499999989 0
0.0566666685 0.00499999989 0
0.0533333346 0.00499999989 0
0.0500000007 0.00499999989 0
0.0466666669 0.00499999989 0
0.043333333 0.00499999989 0
0.0399999991 0.00499999989 0
0.0366666652 0.00499999989 0
0.0333333351 0.00499999989 0
0.0299999993 0.00499999989 0
0.0266666673 0.00499999989 0
0.0233333334 0.00499999989 0
0.0199999996 0.00499999989 0
0.0166666675 0.00499999989 0
0.0133333337 0.00499999989 0
0.00999999978 0.00499999989 0
0.00666666683 0.00499999989 0
0.00333333341 0.00499999989 0
0.0 0.00499999989 0
0.100000001 0.00166666671 0
0.0966666639 0.00166666671 0
0.0933333337 0.00166666671 0
0.0900000036 0.00166666671 0
0.086666666 0.00166666671 0
0.0833333358 0.00166666671 0
0.0799999982 0.00166666671 0
0.0766666681 0.00166666671 0
0.0733333305 0.00166666671 0
0.0700000003 0.00166666671 0
0.0666666701 0.00166666671 0
0.0633333325 0.00166666671 0
0.0599999987 0.00166666671 0
0.0566666685 0.00166666671 0
0.0533333346 0.00166666671 0
0.0500000007 0.00166666671 0
0.0466666669 0.00166666671 0
0.043333333 0.00166666671 0
0.0399999991 0.00166666671 0
0.0366666652 0.00166666671 0
0.0333333351 0.00166666671 0
0.0299999993 0.00166666671 0
0.0266666673 0.00166666671 0
0.0233333334 0.00166666671 0
0.0199999996 0.00166666671 0
0.0166666675 0.00166666671 0
0.0133333337 0.00166666671 0
0.00999999978 0.00166666671 0
0.00666666683 0.00166666671 0
0.00333333341 0.00166666671 0
0.0 0.00166666671 0
0.100000001 -0.00166666671 0
0.0966666639 -0.00166666671 0
0.0933333337 -0.00166666671 0
0.0900000036 -0.00166666671 0
0.086666666 -0.00166666671 0
0.0833333358 -0.00166666671 0
0.0799999982 -0.00166666671 0
0.0766666681 -0.00166666671 0
0.0733333305 -0.00166666671 0
0.0700000003 -0.00166666671 0
0.0666666701 -0.00166666671 0
0.0633333325 -0.00166666671 0
0.0599999987 -0.00166666671 0
0.0566666685 -0.00166666671 0
0.0533333346 -0.00166666671 0
0.0500000007 -0.00166666671 0
0.0466666669 -0.00166666671 0
0.043333333 -0.00166666671 0
0.0399999991 -0.00166666671 0
0.0366666652 -0.00166666671 0
0.0333333351 -0.00166666671 0
0.0299999993 -0.00166666671 0
0.0266666673 -0.00166666671 0
0.0233333334 -0.00166666671 0
0.0199999996 -0.00166666671 0
0.0166666675 -0.00166666671 0
0.0133333337 -0.00166666671 0
0.00999999978 -0.00166666671 0
0.00666666683 -0.00166666671 0
0.00333333341 -0.00166666671 0
0.0 -0.00166666671 0
0.100000001 -0.00499999989 0
0.0966666639 -0.00499999989 0
0.0933333337 -0.00499999989 0
0.0900000036 -0.00499999989 0
0.086666666 -0.00499999989 0
0.0833333358 -0.00499999989 0
0.0799999982 -0.00499999989 0
0.0766666681 -0.00499999989 0
0.0733333305 -0.00499999989 0
0.0700000003 -0.00499999989 0
0.0666666701 -0.00499999989 0
0.0633333325 -0.00499999989 0
0.0599999987 -0.00499999989 0
0.0566666685 -0.00499999989 0
0.0533333346 -0.00499999989 0
0.0500000007 -0.00499999989 0
0.0466666669 -0.00499999989 0
0.043333333 -0.00499999989 0
0.0399999991 -0.00499999989 0
0.0366666652 -0.00499999989 0
0.0333333351 -0.00499999989 0
0.0299999993 -0.00499999989 0
0.0266666673 -0.00499999989 0
0.0233333334 -0.00499999989 0
0.0199999996 -0.00499999989 0
0.0166666675 -0.00499999989 0
0.0133333337 -0.00499999989 0
0.00999999978 -0.00499999989 0
0.00666666683 -0.00499999989 0
0.00333333341 -0.00499999989 0
0.0 -0.00499999989 0
0.100000001 -0.00833333377 0
0.0966666639 -0.00833333377 0
0.0933333337 -0.00833333377 0
0.0900000036 -0.00833333377 0
0.086666666 -0.00833333377 0
0.0833333358 -0.00833333377 0
0.0799999982 -0.00833333377 0
0.0766666681 -0.00833333377 0
0.0733333305 -0.00833333377 0
0.0700000003 -0.00833333377 0
0.0666666701 -0.00833333377 0
0.0633333325 -0.00833333377 0
0.0599999987 -0.00833333377 0
0.0566666685 -0.00833333377 0
0.0533333346 -0.00833333377 0
0.0500000007 -0.00833333377 0
0.0466666669 -0.00833333377 0
0.043333333 -0.00833333377 0
0.0399999991 -0.00833333377 0
0.0366666652 -0.00833333377 0
0.0333333351 -0.00833333377 0
0.0299999993 -0.00833333377 0
0.0266666673 -0.00833333377 0
0.0233333334 -0.00833333377 0
0.0199999996 -0.00833333377 0
0.0166666675 -0.00833333377 0
0.0133333337 -0.00833333377 0
0.00999999978 -0.00833333377 0
0.00666666683 -0.00833333377 0
0.00333333341 -0.00833333377 0
0.0 -0.00833333377 0
0.100000001 -0.0116666667 0
0.0966666639 -0.0116666667 0
0.0933333337 -0.0116666667 0
0.0900000036 -0.0116666667 0
0.086666666 -0.0116666667 0
0.0833333358 -0.0116666667 0
0.0799999982 -0.0116666667 0
0.0766666681 -0.0116666667 0
0.0733333305 -0.0116666667 0
0.0700000003 -0.0116666667 0
0.0666666701 -0.0116666667 0
0.0633333325 -0.0116666667 0
0.0599999987 -0.0116666667 0
0.0566666685 -0.0116666667 0
0.0533333346 -0.0116666667 0
0.0500000007 -0.0116666667 0
0.0466666669 -0.0116666667 0
0.043333333 -0.0116666667 0
0.0399999991 -0.0116666667 0
0.0366666652 -0.0116666667 0
0.0333333351 -0.0116666667 0
0.0299999993 -0.0116666667 0
0.0266666673 -0.0116666667 0
0.0233333334 -0.0116666667 0
0.0199999996 -0.0116666667 0
0.0166666675 -0.0116666667 0
0.0133333337 -0.0116666667 0
0.00999999978 -0.0116666667 0
0.00666666683 -0.0116666667 0
0.00333333341 -0.0116666667 0
0.0 -0.0116666667 0
0.100000001 -0.0149999997 0
0.0966666639 -0.0149999997 0
0.0933333337 -0.0149999997 0
0.0900000036 -0.0149999997 0
0.086666666 -0.0149999997 0
0.0833333358 -0.0149999997 0
0.0799999982 -0.0149999997 0
0.0766666681 -0.0149999997 0
0.0733333305 -0.0149999997 0
0.0700000003 -0.0149999997 0
0.0666666701 -0.0149999997 0
0.0633333325 -0.0149999997 0
0.0599999987 -0.0149999997 0
0.0566666685 -0.0149999997 0
0.0533333346 -0.0149999997 0
0.0500000007 -0.0149999997 0
0.0466666669 -0.0149999997 0
0.043333333 -0.0149999997 0
0.0399999991 -0.0149999997 0
0.0366666652 -0.0149999997 0
0.0333333351 -0.0149999997 0
0.0299999993 -0.0149999997 0
0.0266666673 -0.0149999997 0
0.0233333334 -0.0149999997 0
0.0199999996 -0.0149999997 0
0.0166666675 -0.0149999997 0
0.0133333337 -0.0149999997 0
0.00999999978 -0.0149999997 0
0.00666666683 -0.0149999997 0
0.00333333341 -0.0149999997 0
0.0 -0.0149999997 0
0.100000001 -0.0183333326 0
0.0966666639 -0.0183333326 0
0.0933333337 -0.0183333326 0
0.0900000036 -0.0183333326 0
0.086666666 -0.0183333326 0
0.0833333358 -0.0183333326 0
0.0799999982 -0.0183333326 0
0.0766666681 -0.0183333326 0
0.0733333305 -0.0183333326 0
0.0700000003 -0.0183333326 0
0.0666666701 -0.0183333326 0
0.0633333325 -0.0183333326 0
0.0599999987 -0.0183333326 0
0.0566666685 -0.0183333326 0
0.0533333346 -0.0183333326 0
0.0500000007 -0.0183333326 0
0.0466666669 -0.0183333326 0
0.043333333 -0.0183333326 0
0.0399999991 -0.0183333326 0
0.0366666652 -0.0183333326 0
0.0333333351 -0.0183333326 0
0.0299999993 -0.0183333326 0
0.0266666673 -0.0183333326 0
0.0233333334 -0.0183333326 0
0.0199999996 -0.0183333326 0
0.0166666675 -0.0183333326 0
0.0133333337 -0.0183333326 0
0.00999999978 -0.0183333326 0
0.00666666683 -0.0183333326 0
0.00333333341 -0.0183333326 0
0.0 -0.0183333326 0
0.100000001 -0.0216666665 0
0.0966666639 -0.0216666665 0
0.0933333337 -0.0216666665 0
0.0900000036 -0.0216666665 0
0.086666666 -0.0216666665 0
0.0833333358 -0.0216666665 0
0.0799999982 -0.0216666665 0
0.0766666681 -0.0216666665 0
0.0733333305 -0.0216666665 0
0.0700000003 -0.0216666665 0
0.0666666701 -0.0216666665 0
0.0633333325 -0.0216666665 0
0.0599999987 -0.0216666665 0
0.0566666685 -0.0216666665 0
0.0533333346 -0.0216666665 0
0.0500000007 -0.0216666665 0
0.0466666669 -0.0216666665 0
0.043333333 -0.0216666665 0
0.0399999991 -0.0216666665 0
0.0366666652 -0.0216666665 0
0.0333333351 -0.0216666665 0
0.0299999993 -0.0216666665 0
0.0266666673 -0.0216666665 0
0.0233333334 -0.0216666665 0
0.0199999996 -0.0216666665 0
0.0166666675 -0.0216666665 0
0.0133333337 -0.0216666665 0
0.00999999978 -0.0216666665 0
0.00666666683 -0.0216666665 0
0.00333333341 -0.0216666665 0
0.0 -0.0216666665 0
0.100000001 -0.0250000004 0
0.0966666639 -0.0250000004 0
0.0933333337 -0.0250000004 0
0.0900000036 -0.0250000004 0
0.086666666 -0.0250000004 0
0.0833333358 -0.0250000004 0
0.0799999982 -0.0250000004 0
0.0766666681 -0.0250000004 0
0.0733333305 -0.0250000004 0
0.0700000003 -0.0250000004 0
0.0666666701 -0.0250000004 0
0.0633333325 -0.0250000004 0
0.0599999987 -0.0250000004 0
0.0566666685 -0.0250000004 0
0.0533333346 -0.0250000004 0
0.0500000007 -0.0250000004 0
0.0466666669 -0.0250000004 0
0.043333333 -0.0250000004 0
0.0399999991 -0.0250000004 0
0.0366666652 -0.0250000004 0
0.0333333351 -0.0250000004 0
0.0299999993 -0.0250000004 0
0.0266666673 -0.0250000004 0
0.0233333334 -0.0250000004 0
0.0199999996 -0.0250000004 0
0.0166666675 -0.0250000004 0
0.0133333337 -0.0250000004 0
0.00999999978 -0.0250000004 0
0.00666666683 -0.0250000004 0
0.00333333341 -0.0250000004 0
0.0 -0.0250000004 0
0.100000001 -0.0283333343 0
0.0966666639 -0.0283333343 0
0.0933333337 -0.0283333343 0
0.0900000036 -0.0283333343 0
0.086666666 -0.0283333343 0
0.0833333358 -0.0283333343 0
0.0799999982 -0.0283333343 0
0.0766666681 -0.0283333343 0
0.0733333305 -0.0283333343 0
0.0700000003 -0.0283333343 0
0.0666666701 -0.0283333343 0
0.0633333325 -0.0283333343 0
0.0599999987 -0.0283333343 0
0.0566666685 -0.0283333343 0
0.0533333346 -0.0283333343 0
0.0500000007 -0.0283333343 0
0.0466666669 -0.0283333343 0
0.043333333 -0.0283333343 0
0.0399999991 -0.0283333343 0
0.0366666652 -0.0283333343 0
0.0333333351 -0.0283333343 0
0.0299999993 -0.0283333343 0
0.0266666673 -0.0283333343 0
0.0233333334 -0.0283333343 0
0.0199999996 -0.0283333343 0
0.0166666675 -0.0283333343 0
0.0133333337 -0.0283333343 0
0.00999999978 -0.0283333343 0
0.00666666683 -0.0283333343 0
0.00333333341 -0.0283333343 0
0.0 -0.0283333343 0
[...]
POINT_DATA 961.0
SCALARS Temp float 1
LOOKUP_TABLE default
312.4512882453597
280.85016522036767
256.8730019172682
239.7566842665209
228.27909273000498
221.05213773821453
216.7763627135642
214.39584421614123
213.1460241262906
212.52565844712637
212.23371198942488
212.10307172109833
212.04734794849102
212.02471828155322
212.01622403674517
212.01408308166936
212.0162240318293
212.02471826668292
212.04734794941518
212.1030717239952
212.23371154335751
212.52565815341092
213.14602395259098
214.39584183513827
216.77636154037225
221.0521259534101
228.27908218160914
239.75665093848673
256.87296920448136
280.85015488714197
312.4512306491257
280.85025328530776
248.12362542323763
223.29181704862785
205.56477139695116
193.6771117916402
186.19155659243881
181.7625164527381
179.2965060582376
178.00171019159512
177.35897311593163
177.05647589075315
176.92110409577515
176.8633577590975
176.83990500061788
176.8311012245225
176.82888215794696
176.83110121938492
176.83990498507094
176.8633577596741
176.92110409775051
177.056475425884
177.35897280494189
178.00170999550463
179.2965035538999
181.76251515162747
186.19154419322433
193.6771004383197
205.56473583052608
223.2917809278169
248.12359712271274
280.8501585355884
256.8730873593898
223.2918221273114
197.80969483039888
179.61662780429432
167.4149795538964
159.73060866609217
155.18319568856631
152.65082644730168
151.32093524275513
150.66064529562559
150.34982332872002
150.21069721323616
150.15133706960046
150.12722402526836
150.11817075409732
150.11588853089228
150.11817074869404
150.12722400890064
150.1513370691234
150.21069721239746
150.3498228436017
150.66064495767657
151.32093499708793
152.65082377286245
155.18319412249966
159.73059543207611
167.41496679879603
179.61658889647396
197.80965160201885
223.29178097417739
256.8729724455297
239.75677554437337
205.56478406380955
179.61663686562645
161.08837407436397
148.6598400396779
140.83102828733828
136.1970922920069
133.61589696393384
132.26000135918056
131.58661051632018
131.26952910235815
131.12755906312609
131.06696745883048
131.04234699915216
131.03310079574575
131.03076953640024
131.03310079005027
131.042346981879
131.0669674567878
131.12755905813538
131.26952859683377
131.58661014564723
132.26000104727615
133.61589409804697
136.19709039070432
140.8310141574374
148.65982572360565
161.0883317760351
179.61658801785677
205.5647349478242
239.75665119679192
228.27921455864725
193.677154397894
167.41501919883652
148.6598711767331
136.07688581335893
128.1490861542862
123.45540567742279
120.84021774182759
119.4660596062736
118.78338471536618
118.46182650459454
118.31780361927203
118.2563149649949
118.23132162877232
118.22193254648282
118.21956479084876
118.22193254049301
118.23132161058943
118.25631496114563
118.31780360954957
118.46182598012497
118.7833843112159
119.46605922463058
120.84021469297033
123.45540344572835
128.14907122994595
136.0768701492443
148.65982631748383
167.41496663834633
193.67710080198734
228.27908498148722
221.05226791073346
186.1916031508462
159.73065185130648
140.8310630136646
128.14908961885993
120.15734721690363
115.42472964328918
112.78717197962536
111.4008712295238
110.71195696632799
110.38735703335779
110.24192394992133
110.17981233673083
110.15455733464368
110.14506705824334
110.1426733002172
110.14506705198136
110.1545573156255
110.17981233110058
110.24192393561222
110.38735649276389
110.71195653228075
111.40087078561106
112.78716877848457
115.42472713863384
120.15733168843217
128.14907298634017
140.831016475776
159.73059706704177
186.19154705391577
221.0521354573495
216.77650306890044
181.7625733688174
155.18324987121082
136.19713851436975
123.45542081703066
115.42474146687445
110.6681743190232
108.0167051419303
106.62276386380364
105.92987521395683
105.6033132976531
105.45695903198789
105.39443535200473
105.36900516452467
105.35944641364814
105.35703494010697
105.35944640715397
105.3690051448017
105.39443534481828
105.4569590137521
105.60331274447735
105.9298747561354
106.62276337113865
108.01670182837562
110.6681716179314
115.42472553309926
123.45540356873522
136.19709097569785
155.18319383248829
181.76251592461503
216.7763690712336
214.3959777525354
179.2965605827648
152.65087983955542
133.61594297112583
120.84023282842784
112.78718384332721
108.01670518070877
105.35705688404062
103.95856483688696
103.26327663490564
102.9355134982353
102.78858721030497
102.7258040266935
102.70026200625082
102.69065901713466
102.68823601039549
102.69065901045744
102.7002619859795
102.72580401827834
102.78858718904227
102.93551293603592
103.26327616002396
103.95856431008062
105.35705349576595
108.01670235331916
112.78716766343163
120.84021522298343
133.61589487744928
152.6508231317604
179.29650244244556
214.39584295728181
213.1461529788148
178.00176498835032
151.32099043746683
132.26004966440019
119.46607717673947
111.40088568439316
106.62276652629436
103.95856747990663
102.55750787926605
101.86084580966543
101.53238438816723
101.38512040193008
101.32218163666208
101.2965715599863
101.28694129305029
101.28451111483011
101.28694128623889
101.29657153931967
101.32218162736052
101.38512037854065
101.53238381999775
101.86084532362189
102.55750733076519
103.958564046332
106.62276362495125
111.40086936691267
119.46605937914389
132.26000128182815
151.3209333914378
178.00170650451494
213.14601778944655
212.525787411614
177.35902797095156
150.66070006530137
131.5866583975891
118.78340189792368
110.71197107288066
105.92987753909685
103.26327894774276
101.86084547792211
101.16343674407835
100.83458963693862
100.68713602133998
100.6241084308478
100.59845886886843
100.58881254965644
100.58637811294608
100.5888125427534
100.59845884793707
100.6241084209574
100.6871359965771
100.83458906510913
101.16343625131864
101.86084491676975
103.26327548884034
105.92987459777277
110.7119546837851
118.78338400350799
131.58660987309466
150.66064285693938
177.35896932542127
212.5256520363239
212.23385181489388
177.0565324650024
150.34987851460252
131.26957715999566
118.46184382322622
110.38737127593335
105.60331575531933
102.93551594281223
101.53238418535919
100.8345897650087
100.50554003896029
100.35798505715907
100.29490914652823
100.26923773559857
100.25958239956078
100.25714554789275
100.2595823925995
100.269237714502
100.29490913627522
100.35798503157534
100.50553946504265
100.83458926850406
101.53238361737178
102.93551247073174
105.60331279383968
110.38735485185195
118.46182588282373
131.2695285694383
150.34982123212922
177.0564737468562
212.23371635587228
212.10321271503483
176.9211613620114
150.21075301926265
131.1276076993446
118.31782147707256
110.24193870057788
105.45696197522942
102.78859012868925
101.38512066607738
100.6871366135125
100.3579855202207
100.21037890840927
100.14727793490297
100.12159498838699
100.11193481678748
100.10949665717388
100.1119348097914
100.12159496719376
100.14727792444212
100.2103788823689
100.35798494518916
100.68713611505993
101.38512009464321
102.78858665018213
105.4569590042042
110.24192226036021
118.31780351598027
131.12755907955167
150.21069570453608
176.92110261271102
212.10307721998777
212.04747870554647
176.863413942265
150.15139299871586
131.06701638358174
118.25633303212878
110.17982722003993
105.39443837887436
102.72580700290261
101.32218194562951
100.62410906205605
100.29490964620527
100.14727797067944
100.08416460348572
100.05847584852071
100.04881320310577
100.04637436764212
100.04881319609032
100.0584758272746
100.08416459291344
100.14727794440172
100.2949090706162
100.62410856265392
101.32218137256368
102.72580352144304
105.39443540358108
110.17981077276782
118.25631506219
131.0669677514589
150.15133567058592
176.8633551801802
212.0473431956815
212.02484860931764
176.8399611131172
150.12728070635748
131.04239640868033
118.23133996025979
110.15457234896984
105.36900825143688
102.70026500760865
101.29657187763914
100.59845950152217
100.26923823368567
100.12159502139866
100.05847584542511
100.03278431957814
100.02312047564202
100.02068130955574
100.02312046861651
100.03278429830512
100.05847583479748
100.1215949950061
100.26923765783593
100.59845900168716
101.29657130385004
102.70026152487394
105.36900527434562
110.1545558987809
118.2313219867358
131.04234777161602
150.1272233729264
176.839902346037
212.02471309363833
212.01635912413383
176.83116173256593
150.11822900475954
131.03315090060477
118.2219512007871
110.14508222952354
105.35944958059035
102.69066206316076
101.28694163942829
100.58881320415462
100.25958291663798
100.1119348676656
100.04881321748977
100.02312049302209
100.01345612360822
100.0110168113475
100.01345611657808
100.023120471737
100.04881320683754
100.1119348412237
100.25958234067946
100.58881270414388
101.28694106535255
102.69065857993154
105.35944660281797
110.14506577824383
118.22193322594761
131.0331022617396
150.11817166942137
176.8311029637117
212.01622360636972
212.01424103106342
176.8289470732025
150.1159482520977
131.03082018862284
118.21958367836721
110.14268857807575
105.35703815844022
102.688239083231
101.28451147714806
100.58637877871801
100.25714607430828
100.1094967166201
100.04637439030861
100.02068133512341
100.01101681951036
100.00857746637143
100.01101681247901
100.02068131383483
100.04637437964998
100.10949669016604
100.25714549832375
100.58637827866775
101.28451090301115
102.68823559989835
105.35703518053354
110.14267212657855
118.21956570327899
131.03077154941099
150.11589091640727
176.82888830404895
212.01410551289774
212.01638211759524
176.83116626309814
150.11823057093815
131.03315150887605
118.22195146646858
110.14508234983775
105.35944963562855
102.69066208842412
101.28694165128171
100.58881321012382
100.25958292010863
100.1119348701127
100.04881321953292
100.02312049491204
100.01345612544392
100.01101681316997
100.01345611841373
100.02312047362717
100.04881320888208
100.11193484367536
100.25958234416181
100.58881271013921
101.28694107725788
102.69065860528818
105.35944665800952
110.14506589878935
118.22193349195089
131.03310287042316
150.1181732360879
176.8311074947828
212.0162466003464
212.0248538118657
176.83996592477502
150.12728258367713
131.0423972946005
118.2313403805199
110.15457255014658
105.36900834726276
102.70026505342707
101.29657190031097
100.59845951383284
100.26923824152956
100.12159502739107
100.05847585068017
100.03278432455164
100.02312048051526
100.02068131440431
100.02312047348929
100.03278430327855
100.0584758400545
100.12159500100738
100.26923766570593
100.59845901406047
101.29657132665228
102.70026157093636
105.36900537058565
110.15455610059912
118.23132240790704
131.04234865872334
150.12722525166794
176.8399071592573
212.02471829775268
212.0474792607848
176.86341471349968
150.15139436683117
131.06701719244532
118.25633347571986
110.17982745124448
105.39443849745395
102.72580706455159
101.32218197977595
100.62410908350294
100.2949096620493
100.14727798416082
100.08416461601414
100.05847586068185
100.0488132151351
100.0463743796386
100.04881320811815
100.05847583943344
100.08416460544163
100.14727795789368
100.29490908650216
100.62410858421589
101.32218140697205
102.7258035836138
105.39443552309002
110.17981100546773
118.25631550796896
131.06696856323973
150.15133704225136
176.8633559553543
212.04734375489755
212.10320396927523
176.9211621496524
150.21075381034714
131.1276083418417
118.31782187638484
110.24193893434773
105.45696211051337
102.78859021036962
101.38512072049133
100.68713665487404
100.35798555567665
100.21037894133093
100.14727796678993
100.12159501987202
100.1119348481271
100.1094966884763
100.11193484112633
100.12159499866951
100.14727795631819
100.21037891529043
100.35798498069138
100.68713615659584
101.38512014951655
102.78858673286562
105.45695914139559
110.24192249735569
118.31780392019363
131.12755972877207
150.21069650396592
176.92110340971945
212.10306848372986
212.2338621188937
177.05653364440764
150.34987945654535
131.26957781628414
118.46184431369531
110.38737164404677
105.60331604440886
102.93551618603159
101.53238440426728
100.83458997198659
100.50554024046549
100.35798525630122
100.29490934470458
100.26923793340029
100.25958259722661
100.25714574552183
100.25958259025349
100.26923791227723
100.29490933440944
100.35798523067112
100.50553966654783
100.83458947566834
101.53238383695683
102.93551271566584
105.60331308650807
110.38735522642932
118.46182638360204
131.26952924038028
150.34982219271296
177.05647494750343
212.23372668148912
212.5257896467179
177.35902969857787
150.66070055786065
131.58665867455392
118.78340203466199
110.71197110577928
105.9298775027671
103.26327887073982
101.86084537932162
101.16343663491757
100.8345895229624
100.68713590529748
100.6241083139654
100.59845875166042
100.58881243232888
100.58637799558159
100.58881242539962
100.5984587306666
100.62410830395972
100.68713588036023
100.83458895094647
101.16343614215783
101.86084481887414
103.26327541430413
105.92987456743015
110.71195472856292
118.78338416046765
131.58661018016255
150.66064338901634
177.35897109891405
212.52565431841387
213.14615360917492
178.00176569199294
151.32099164005209
132.26005084504123
119.46607823439665
111.40088664501033
106.6227674277552
103.95856835000735
102.55750873428838
101.86084665799237
101.53238523372147
101.3851212464064
101.32218248074264
101.29657240392751
101.28694213694065
101.28451195869424
101.28694213007724
101.29657238313038
101.32218247117906
101.38512122255733
101.53238466487498
101.86084617124376
102.55750818578743
103.95856491894007
106.62276453484641
111.40087034703826
119.46606047330651
132.2600025203866
151.32093467332618
178.0017073024812
213.1460185172283
214.39597197444334
179.29655942895997
152.6508799768905
133.61594289380315
120.84023254728683
112.7871834429833
108.01670472452203
105.35705640470425
103.95856434894174
103.26327614411356
102.93551300663579
102.78858671852869
102.72580353489971
102.7002615144633
102.690658525344
102.68823551857884
102.69065851857322
102.70026149394798
102.72580352596258
102.78858669626261
102.93551244272153
103.26327566676486
103.95856381962778
105.35705301642939
108.01670190552859
112.78716729014926
120.84021500108057
133.61589490346108
152.6508234193363
179.29650147351776
214.3958373723057
216.77650156313905
181.76258028345282
155.1832547311282
136.19714281960879
123.45542490025356
115.42474550352964
110.66817836619965
108.01670920995261
106.62276794833477
105.92987930865787
105.60331739780203
105.45696313478071
105.39443945598178
105.36900926899123
105.35945051828563
105.35703904474715
105.35945051163823
105.36900924885425
105.39443944786592
105.4569631146373
105.60331684104713
105.92987884484891
106.62276744723502
108.01670588800121
110.66817566510751
115.42472959640028
123.45540773391521
136.19709544889247
155.18319896023846
181.76252318599336
216.7763679335737
221.05229987372795
186.19160790490747
159.7306541744359
140.83106449367853
128.14909102486772
120.15734871659903
115.42473124406334
112.78717365095385
111.40087294223368
110.71195870074409
110.38735877822484
110.24192569947016
110.17981408824534
110.15455908692815
110.14506881078569
110.14267505276239
110.14506880429208
110.15455906726821
110.17981408111936
110.2419256819349
110.38735823116646
110.71195825481728
111.40087247881185
112.7871704227506
115.42472871276118
120.15733318812683
128.1490744741846
140.83101819376233
159.7305998371615
186.19155243514442
221.05216810423786
228.27920518247896
193.6771495021328
167.41501217034784
148.6598643283727
136.07687940625976
128.14908011226507
123.45539986998588
120.84021206835274
119.4660540026968
118.78337914559539
118.46182095010069
118.31779807126473
118.25630941958364
118.23131608433324
118.22192700235351
118.21955924671074
118.2219269960417
118.23131606523884
118.25630941354603
118.31779805664071
118.46182041532137
118.78337872122322
119.46605358454744
120.84020896025599
123.45539755633263
128.14906510608574
136.07686374214273
148.65981972514967
167.41496029048838
193.67709702342214
228.27907686952284
239.75677043591145
205.56478310696096
179.61663980343084
161.08837950550256
148.65984701239427
140.83103615688069
136.1971006663051
133.6159056061772
132.26001013546744
131.5866193558397
131.26953797007639
131.12756794276618
131.06697634325917
131.04235588539822
131.03310968259885
131.03077842329532
131.03310967649
131.04235586693645
131.066976338298
131.12756793105126
131.26953744989763
131.58661895506282
132.26000976564467
133.6159026369542
136.19709859704457
140.8310217890049
148.65983244029093
161.08833720717402
179.61659186128617
205.56473594360745
239.7566485980933
256.87305488584934
223.29179686478042
197.80967817502014
179.6166152540808
167.41496906733965
159.7305993211876
155.18318695230755
152.6508180208176
151.32092696552104
150.66063708641153
150.34981514885632
150.2106890453852
150.15132890641908
150.1272158637987
150.11816259317223
150.1158803699727
150.11816258727956
150.12721584600746
150.15132890239036
150.21068903620025
150.34981464509622
150.66063670894385
151.32092664054983
152.65081519613543
155.18318511840516
159.7305856401766
167.41495563159984
179.61657544063254
197.8096349466349
223.29175990015483
256.8729449925497
280.85022430878576
248.12363287171422
223.29183485079454
205.56479364862378
193.67713688847297
186.1915833103946
181.76254405286815
179.29653411223669
178.00173846676506
177.35900149325587
177.0565043128826
176.92113253660807
176.86338620737433
176.8399334517059
176.83112967655669
176.828910610076
176.83112967088485
176.83993343459403
176.86338620400986
176.92113252921195
177.05650382677416
177.35900113639897
178.00173817635027
179.29653142301828
181.76254240500796
186.19157028401793
193.67712441794458
205.56475612956348
223.29179454145503
248.12360457117038
280.8501568371782
312.45126506516186
280.8501571946858
256.87299239775723
239.75667871539736
228.27908964745976
221.05213609736785
216.7763618471034
214.39584374204154
213.14602384000887
212.52565824596948
212.2337118248647
212.10307157149438
212.04734780470577
212.0247181399097
212.01622389579396
212.01408294074858
212.016223890342
212.0247181234655
212.0473478016526
212.10307156489623
212.23371135717272
212.52565790526455
213.14602356888784
214.39584116792705
216.77636030580894
221.05212362863972
228.27907783484747
239.75664287760338
256.872954664391
280.8501195833529
312.4512074689549
