# vtk DataFile Version 2.0
Unstructured Grid Example
ASCII
DATASET UNSTRUCTURED_GRID

POINTS 961.0 float
0.100000001 0.00499999989 0
0.0966666639 0.00499999989 0
0.0933333337 0.00499999989 0
0.0900000036 0.00499999989 0
0.086666666 0.00499999989 0
0.0833333358 0.00499999989 0
0.0799999982 0.00499999989 0
0.0766666681 0.00499999989 0
0.0733333305 0.00499999989 0
0.0700000003 0.00499999989 0
0.0666666701 0.00499999989 0
0.0633333325 0.00499999989 0
0.0599999987 0.00499999989 0
0.0566666685 0.00499999989 0
0.0533333346 0.00499999989 0
0.0500000007 0.00499999989 0
0.0466666669 0.00499999989 0
0.043333333 0.00499999989 0
0.0399999991 0.00499999989 0
0.0366666652 0.00499999989 0
0.0333333351 0.00499999989 0
0.0299999993 0.00499999989 0
0.0266666673 0.00499999989 0
0.0233333334 0.00499999989 0
0.0199999996 0.00499999989 0
0.0166666675 0.00499999989 0
0.0133333337 0.00499999989 0
0.00999999978 0.00499999989 0
0.00666666683 0.00499999989 0
0.00333333341 0.00499999989 0
0.0 0.00499999989 0
0.100000001 0.00166666671 0
0.0966666639 0.00166666671 0
0.0933333337 0.00166666671 0
0.0900000036 0.00166666671 0
0.086666666 0.00166666671 0
0.0833333358 0.00166666671 0
0.0799999982 0.00166666671 0
0.0766666681 0.00166666671 0
0.0733333305 0.00166666671 0
0.0700000003 0.00166666671 0
0.0666666701 0.00166666671 0
0.0633333325 0.00166666671 0
0.0599999987 0.00166666671 0
0.0566666685 0.00166666671 0
0.0533333346 0.00166666671 0
0.0500000007 0.00166666671 0
0.0466666669 0.00166666671 0
0.043333333 0.00166666671 0
0.0399999991 0.00166666671 0
0.0366666652 0.00166666671 0
0.0333333351 0.00166666671 0
0.0299999993 0.00166666671 0
0.0266666673 0.00166666671 0
0.0233333334 0.00166666671 0
0.0199999996 0.00166666671 0
0.0166666675 0.00166666671 0
0.0133333337 0.00166666671 0
0.00999999978 0.00166666671 0
0.00666666683 0.00166666671 0
0.00333333341 0.00166666671 0
0.0 0.00166666671 0
0.100000001 -0.00166666671 0
0.0966666639 -0.00166666671 0
0.0933333337 -0.00166666671 0
0.0900000036 -0.00166666671 0
0.086666666 -0.00166666671 0
0.0833333358 -0.00166666671 0
0.0799999982 -0.00166666671 0
0.0766666681 -0.00166666671 0
0.0733333305 -0.00166666671 0
0.0700000003 -0.00166666671 0
0.0666666701 -0.00166666671 0
0.0633333325 -0.00166666671 0
0.0599999987 -0.00166666671 0
0.0566666685 -0.00166666671 0
0.0533333346 -0.00166666671 0
0.0500000007 -0.00166666671 0
0.0466666669 -0.00166666671 0
0.043333333 -0.00166666671 0
0.0399999991 -0.00166666671 0
0.0366666652 -0.00166666671 0
0.0333333351 -0.00166666671 0
0.0299999993 -0.00166666671 0
0.0266666673 -0.00166666671 0
0.0233333334 -0.00166666671 0
0.0199999996 -0.00166666671 0
0.0166666675 -0.00166666671 0
0.0133333337 -0.00166666671 0
0.00999999978 -0.00166666671 0
0.00666666683 -0.00166666671 0
0.00333333341 -0.00166666671 0
0.0 -0.00166666671 0
0.100000001 -0.00499999989 0
0.0966666639 -0.00499999989 0
0.0933333337 -0.00499999989 0
0.0900000036 -0.00499999989 0
0.086666666 -0.00499999989 0
0.0833333358 -0.00499999989 0
0.0799999982 -0.00499999989 0
0.0766666681 -0.00499999989 0
0.0733333305 -0.00499999989 0
0.0700000003 -0.00499999989 0
0.0666666701 -0.00499999989 0
0.0633333325 -0.00499999989 0
0.0599999987 -0.00499999989 0
0.0566666685 -0.00499999989 0
0.0533333346 -0.00499999989 0
0.0500000007 -0.00499999989 0
0.0466666669 -0.00499999989 0
0.043333333 -0.00499999989 0
0.0399999991 -0.00499999989 0
0.0366666652 -0.00499999989 0
0.0333333351 -0.00499999989 0
0.0299999993 -0.00499999989 0
0.0266666673 -0.00499999989 0
0.0233333334 -0.00499999989 0
0.0199999996 -0.00499999989 0
0.0166666675 -0.00499999989 0
0.0133333337 -0.00499999989 0
0.00999999978 -0.00499999989 0
0.00666666683 -0.00499999989 0
0.00333333341 -0.00499999989 0
0.0 -0.00499999989 0
0.100000001 -0.00833333377 0
0.0966666639 -0.00833333377 0
0.0933333337 -0.00833333377 0
0.0900000036 -0.00833333377 0
0.086666666 -0.00833333377 0
0.0833333358 -0.00833333377 0
0.0799999982 -0.00833333377 0
0.0766666681 -0.00833333377 0
0.0733333305 -0.00833333377 0
0.0700000003 -0.00833333377 0
0.0666666701 -0.00833333377 0
0.0633333325 -0.00833333377 0
0.0599999987 -0.00833333377 0
0.0566666685 -0.00833333377 0
0.0533333346 -0.00833333377 0
0.0500000007 -0.00833333377 0
0.0466666669 -0.00833333377 0
0.043333333 -0.00833333377 0
0.0399999991 -0.00833333377 0
0.0366666652 -0.00833333377 0
0.0333333351 -0.00833333377 0
0.0299999993 -0.00833333377 0
0.0266666673 -0.00833333377 0
0.0233333334 -0.00833333377 0
0.0199999996 -0.00833333377 0
0.0166666675 -0.00833333377 0
0.0133333337 -0.00833333377 0
0.00999999978 -0.00833333377 0
0.00666666683 -0.00833333377 0
0.00333333341 -0.00833333377 0
0.0 -0.00833333377 0
0.100000001 -0.0116666667 0
0.0966666639 -0.0116666667 0
0.0933333337 -0.0116666667 0
0.0900000036 -0.0116666667 0
0.086666666 -0.0116666667 0
0.0833333358 -0.0116666667 0
0.0799999982 -0.0116666667 0
0.0766666681 -0.0116666667 0
0.0733333305 -0.0116666667 0
0.0700000003 -0.0116666667 0
0.0666666701 -0.0116666667 0
0.0633333325 -0.0116666667 0
0.0599999987 -0.0116666667 0
0.0566666685 -0.0116666667 0
0.0533333346 -0.0116666667 0
0.0500000007 -0.0116666667 0
0.0466666669 -0.0116666667 0
0.043333333 -0.0116666667 0
0.0399999991 -0.0116666667 0
0.0366666652 -0.0116666667 0
0.0333333351 -0.0116666667 0
0.0299999993 -0.0116666667 0
0.0266666673 -0.0116666667 0
0.0233333334 -0.0116666667 0
0.0199999996 -0.0116666667 0
0.0166666675 -0.0116666667 0
0.0133333337 -0.0116666667 0
0.00999999978 -0.0116666667 0
0.00666666683 -0.0116666667 0
0.00333333341 -0.0116666667 0
0.0 -0.0116666667 0
0.100000001 -0.0149999997 0
0.0966666639 -0.0149999997 0
0.0933333337 -0.0149999997 0
0.0900000036 -0.0149999997 0
0.086666666 -0.0149999997 0
0.0833333358 -0.0149999997 0
0.0799999982 -0.0149999997 0
0.0766666681 -0.0149999997 0
0.0733333305 -0.0149999997 0
0.0700000003 -0.0149999997 0
0.0666666701 -0.0149999997 0
0.0633333325 -0.0149999997 0
0.0599999987 -0.0149999997 0
0.0566666685 -0.0149999997 0
0.0533333346 -0.0149999997 0
0.0500000007 -0.0149999997 0
0.0466666669 -0.0149999997 0
0.043333333 -0.0149999997 0
0.0399999991 -0.0149999997 0
0.0366666652 -0.0149999997 0
0.0333333351 -0.0149999997 0
0.0299999993 -0.0149999997 0
0.0266666673 -0.0149999997 0
0.0233333334 -0.0149999997 0
0.0199999996 -0.0149999997 0
0.0166666675 -0.0149999997 0
0.0133333337 -0.0149999997 0
0.00999999978 -0.0149999997 0
0.00666666683 -0.0149999997 0
0.00333333341 -0.0149999997 0
0.0 -0.0149999997 0
0.100000001 -0.0183333326 0
0.0966666639 -0.0183333326 0
0.0933333337 -0.0183333326 0
0.0900000036 -0.0183333326 0
0.086666666 -0.0183333326 0
0.0833333358 -0.0183333326 0
0.0799999982 -0.0183333326 0
0.0766666681 -0.0183333326 0
0.0733333305 -0.0183333326 0
0.0700000003 -0.0183333326 0
0.0666666701 -0.0183333326 0
0.0633333325 -0.0183333326 0
0.0599999987 -0.0183333326 0
0.0566666685 -0.0183333326 0
0.0533333346 -0.0183333326 0
0.0500000007 -0.0183333326 0
0.0466666669 -0.0183333326 0
0.043333333 -0.0183333326 0
0.0399999991 -0.0183333326 0
0.0366666652 -0.0183333326 0
0.0333333351 -0.0183333326 0
0.0299999993 -0.0183333326 0
0.0266666673 -0.0183333326 0
0.0233333334 -0.0183333326 0
0.0199999996 -0.0183333326 0
0.0166666675 -0.0183333326 0
0.0133333337 -0.0183333326 0
0.00999999978 -0.0183333326 0
0.00666666683 -0.0183333326 0
0.00333333341 -0.0183333326 0
0.0 -0.0183333326 0
0.100000001 -0.0216666665 0
0.0966666639 -0.0216666665 0
0.0933333337 -0.0216666665 0
0.0900000036 -0.0216666665 0
0.086666666 -0.0216666665 0
0.0833333358 -0.0216666665 0
0.0799999982 -0.0216666665 0
0.0766666681 -0.0216666665 0
0.0733333305 -0.0216666665 0
0.0700000003 -0.0216666665 0
0.0666666701 -0.0216666665 0
0.0633333325 -0.0216666665 0
0.0599999987 -0.0216666665 0
0.0566666685 -0.0216666665 0
0.0533333346 -0.0216666665 0
0.0500000007 -0.0216666665 0
0.0466666669 -0.0216666665 0
0.043333333 -0.0216666665 0
0.0399999991 -0.0216666665 0
0.0366666652 -0.0216666665 0
0.0333333351 -0.0216666665 0
0.0299999993 -0.0216666665 0
0.0266666673 -0.0216666665 0
0.0233333334 -0.0216666665 0
0.0199999996 -0.0216666665 0
0.0166666675 -0.0216666665 0
0.0133333337 -0.0216666665 0
0.00999999978 -0.0216666665 0
0.00666666683 -0.0216666665 0
0.00333333341 -0.0216666665 0
0.0 -0.0216666665 0
0.100000001 -0.0250000004 0
0.0966666639 -0.0250000004 0
0.0933333337 -0.0250000004 0
0.0900000036 -0.0250000004 0
0.086666666 -0.0250000004 0
0.0833333358 -0.0250000004 0
0.0799999982 -0.0250000004 0
0.0766666681 -0.0250000004 0
0.0733333305 -0.0250000004 0
0.0700000003 -0.0250000004 0
0.0666666701 -0.0250000004 0
0.0633333325 -0.0250000004 0
0.0599999987 -0.0250000004 0
0.0566666685 -0.0250000004 0
0.0533333346 -0.0250000004 0
0.0500000007 -0.0250000004 0
0.0466666669 -0.0250000004 0
0.043333333 -0.0250000004 0
0.0399999991 -0.0250000004 0
0.0366666652 -0.0250000004 0
0.0333333351 -0.0250000004 0
0.0299999993 -0.0250000004 0
0.0266666673 -0.0250000004 0
0.0233333334 -0.0250000004 0
0.0199999996 -0.0250000004 0
0.0166666675 -0.0250000004 0
0.0133333337 -0.0250000004 0
0.00999999978 -0.0250000004 0
0.00666666683 -0.0250000004 0
0.00333333341 -0.0250000004 0
0.0 -0.0250000004 0
0.100000001 -0.0283333343 0
0.0966666639 -0.0283333343 0
0.0933333337 -0.0283333343 0
0.0900000036 -0.0283333343 0
0.086666666 -0.0283333343 0
0.0833333358 -0.0283333343 0
0.0799999982 -0.0283333343 0
0.0766666681 -0.0283333343 0
0.0733333305 -0.0283333343 0
0.0700000003 -0.0283333343 0
0.0666666701 -0.0283333343 0
0.0633333325 -0.0283333343 0
0.0599999987 -0.0283333343 0
0.0566666685 -0.0283333343 0
0.0533333346 -0.0283333343 0
0.0500000007 -0.0283333343 0
0.0466666669 -0.0283333343 0
0.043333333 -0.0283333343 0
0.0399999991 -0.0283333343 0
0.0366666652 -0.0283333343 0
0.0333333351 -0.0283333343 0
0.0299999993 -0.0283333343 0
0.0266666673 -0.0283333343 0
0.0233333334 -0.0283333343 0
0.0199999996 -0.0283333343 0
0.0166666675 -0.0283333343 0
0.0133333337 -0.0283333343 0
0.00999999978 -0.0283333343 0
0.00666666683 -0.0283333343 0
0.00333333341 -0.0283333343 0
0.0 -0.0283333343 0
[...]
POINT_DATA 961.0
SCALARS Temp float 1
LOOKUP_TABLE default
330.2708058741931
298.94080808603576
274.4262906309662
256.190834296453
243.3154692299472
234.69332802841893
229.217387324829
225.91735703391615
224.0283187233783
222.99975057584476
222.46614177598104
222.20192545179248
222.07693852881474
222.0206967545043
221.99753904421394
221.99134036951872
221.99753902836872
222.02069671019234
222.07693851711733
222.20192542530359
222.4661408497593
222.99974992243597
224.0283181519668
225.91735301943305
229.217384741052
234.69331169884958
243.3154541921319
256.1907935142061
274.42625027166
298.94078923995914
330.2707398134854
298.94089623900896
266.4820676485533
241.08382400464302
222.1905567434937
208.85034179294865
199.9165950744851
194.2425254189082
190.82294199438837
188.86537321848394
187.79943594493437
187.2464107814088
186.97256529574332
186.84301606692057
186.78471815070242
186.76071265864573
186.75428685959764
186.76071264210415
186.78471810443
186.84301605393532
186.97256526620527
187.24640981659195
187.79943525675992
188.86537260215766
190.8229377826935
194.24252263328287
199.9165779286212
208.850325738716
222.1905133873933
241.08377989007158
266.48203070863906
298.9407928776307
274.42637782955927
241.08383021554997
214.99281835569988
195.58295553902266
181.87687701885173
172.69723802338268
166.86635610440356
163.3518382162616
161.33965682548416
160.24382719164427
159.6752093401001
159.3935997562522
159.2603569304986
159.2003877970262
159.17569083877382
159.1690793864831
159.17569082142597
159.20038774846296
159.26035691471287
159.3935997200191
159.67520833438803
160.24382645348837
161.33965612513472
163.35183374589104
166.86635294878982
172.69721980686535
181.87685929572635
195.58290843688502
214.99276672838812
241.08378000669
274.4262536025842
256.19092807434686
222.1905712313993
195.58296525151545
175.78697341309163
161.80663352783844
152.44203278100582
146.4927333234764
142.90621441378744
140.8524194014003
139.73369966968139
139.15308023074402
138.8654631706421
138.7293472733561
138.66807149318376
138.64283147323172
138.6360737995185
138.6428314550126
138.66807144213686
138.72934725366085
138.86546312509898
139.15307918402783
139.7336988722746
140.85241859239704
142.90620965559273
146.49272970806263
152.44201341674878
161.8066139447146
175.78692247779495
195.58290752301286
222.19051254585676
256.1907938385618
243.31559712175107
208.85038983898954
181.8769210713901
161.8066685246543
147.6308233113913
138.13381217536525
132.09932862390394
128.46073750598615
126.37667250711525
125.24120031176001
124.65174133747144
124.35967071566806
124.221410938575
124.15915394372219
124.1335038500165
124.12663537717015
124.13350383092451
124.15915389018969
124.22141091443255
124.35967065963503
124.65174025244667
125.24119945361389
126.37667158338336
128.4607324697741
132.0993245495064
138.13379177238437
147.63080208226472
161.80661459129374
181.87685914759106
208.85032618884046
243.31545710526612
234.69346504606293
199.91664781644124
172.69728641144349
152.44207218746314
138.13381640414335
128.5466756509438
122.45387578424851
118.77940988920426
116.67434734665011
115.52716983888756
114.93148771768483
114.63625740746748
114.49646473878563
114.43350086486167
114.40755339998535
114.40060424754047
114.40755338008144
114.43350080903065
114.49646471023482
114.63625734117751
114.93148659950539
115.52716892551695
116.67434631827018
118.77940461540148
122.4538713187089
128.54665442841468
138.13379394025864
152.44201618949165
172.69722183966863
199.916581246387
234.69332167554964
229.21753767613438
194.24259173450957
166.8664188382898
146.49278767111178
132.0993479926495
122.453891120659
116.32311186559342
112.62511218713611
110.5061669236555
109.35118573301447
108.75131865441186
108.45394452689581
108.31310245355762
108.24965043816732
108.22349606073183
108.21649050453722
108.22349604012695
108.2496503803674
108.31310242108675
108.45394445163782
108.75131750967067
109.35118477439167
110.5061658104603
112.62510673086514
116.32310710555221
122.45386931941879
132.09932469777976
146.4927303642816
166.86635267494026
194.24252348832
229.21739238433136
225.91750080512378
190.82300612851552
163.3519004062975
142.90626881487427
128.46075706818507
118.77942551918177
112.62511246074239
108.91241239421366
106.78471929367053
105.62477498213023
105.02222034818544
104.72345567600321
104.58192604775498
104.51815107399628
104.4918586331351
104.48481524115039
104.49185861196611
104.5181510146288
104.58192601210649
104.72345559361648
105.02221918370935
105.62477398969807
106.78471811829858
108.91240681030149
112.62510750018548
118.7794033437294
128.46073325755074
142.90621072837388
163.35183332937666
190.8229369500103
225.91735444383622
224.02845913734
188.8654389754799
161.3397222318581
140.85247756128084
126.37669602489365
116.67436706361406
110.50617131872318
106.78472344394183
104.65177510652846
103.48881889021375
102.88461590255456
102.58498898967139
102.44302828713985
102.37904864392826
102.35266788650483
102.34560015056343
102.35266786491167
102.37904858339711
102.4430282491191
102.5849889020769
102.88461472443744
103.4888178745365
104.65177388938947
106.78471777776257
110.5061662325697
116.67434466325088
126.37667191459568
140.8524190350486
161.33965465358534
188.86536929726964
224.02831220148752
222.99989101180032
187.79950165115915
160.24389207571755
139.73375731531252
125.24122334100689
115.5271891092278
109.35118968477383
105.62477869613183
103.48881844858013
102.32411724582704
101.7189483301373
101.41881016342963
101.27659079386447
101.2124869059711
101.18605199284075
101.17896923552432
101.18605197094912
101.21248684463188
101.27659075420111
101.41881007231139
101.71894714321546
102.32411621532809
103.48881720546878
105.62477298062886
109.35118452537505
115.5271665819955
125.24119906640743
139.73369855330938
160.2438242343269
187.79943171556394
222.999743779103
222.46629317620332
187.2464783038071
159.6752747466708
139.15313816354364
124.65176460677128
114.93150722808458
108.75132283700519
105.02222429113658
102.88461568416218
101.71894855208836
101.11323849127375
100.81281031119677
100.67044234119257
100.60626619201534
100.57979944315537
100.57270779684791
100.57979942106607
100.60626613014966
100.67044230046825
100.81281021785648
101.11323729902362
101.71894751276628
102.88461442597732
105.02221854791465
108.75131763749974
114.93148463324965
124.65174024672801
139.1530792810477
159.67520677314843
187.24640824096142
222.46614579623977
222.2020784753095
186.97263397440085
159.39366625977115
138.8655221642451
124.35969500266057
114.63627790316151
108.45394966746271
104.72346056314936
102.58498970605453
101.41881131649659
100.81281124096489
100.51222560550103
100.36977588421468
100.30555946672133
100.27907477839133
100.27197808861797
100.27907475617923
100.30555940453306
100.36977584284827
100.51222551084838
100.81281004568122
101.41881027224429
102.5849884396535
104.72345480524172
108.45394444721454
114.63625527414548
124.35967060032539
138.86546322293827
159.3935982227101
186.97256385118044
222.2019310252325
222.07708143837897
186.84308378399152
159.2604236755643
138.72940666540745
124.22143553141404
114.4964854528003
108.31310775288402
104.58193106107625
102.44302911160776
101.27659204655538
100.67044336673321
100.36977597846298
100.22728323564083
100.16304534751451
100.13655098516854
100.12945155669755
100.13655096288453
100.16304528514034
100.22728319390994
100.3697758830828
100.67044216982148
101.27659099970923
102.44302784098555
104.58192529581024
108.31310252247137
114.49646280734903
124.221411109125
138.72934769666767
159.26035560924822
186.8430136332994
222.07693395629425
222.02083931921914
186.78478587939864
159.2004553690946
138.66813143225437
124.15917884708006
114.4335217419578
108.2496558173576
104.51815612387098
102.37904948266768
101.21248816239178
100.60626721644228
100.3055595577637
100.16304534368673
100.09879660276223
100.07229729665858
100.06519645922977
100.07229727433528
100.09879654028833
100.16304530176326
100.30555946200775
100.60626601871321
101.21248711426898
102.37904821001321
104.51815035513789
108.2496505822528
114.43349908903532
124.15915441587319
138.6680724513645
159.2003872899706
186.78471571681325
222.02069182321617
221.9976864743723
186.76078488829833
159.17576007918373
138.64289219464916
124.13352914898185
114.40757449387156
108.22350156891282
104.49186376897771
102.35266879012798
101.18605330427476
100.57980051809852
100.27907491798521
100.13655102916509
100.07229734428445
100.0457957648959
100.03869427589518
100.0457957425538
100.07229728176337
100.1365509871519
100.27907482205829
100.57979932000585
101.18605225559567
102.35266751660599
104.49185799878956
108.2234963318773
114.40755183790581
124.13350471420144
138.6428332089155
159.17569199501236
186.7607147210853
221.99753897290688
221.99151072980487
186.75436356441014
159.16915016058334
138.63613512329442
124.12666095479636
114.40062548460433
108.21649609342299
104.48482042790455
102.34560109078092
101.1789705768449
100.57270889861451
100.27197825368434
100.1294516256186
100.06519653158155
100.03869430056466
100.03159262415262
100.03869427821708
100.06519646904701
100.12945158358124
100.2719781577132
100.57270770042997
101.17896952803247
102.34559981706018
104.48481465738843
108.21649085597483
114.40060282798058
124.12663651927977
138.63607613654585
159.16908207539524
186.75429339632998
221.99136322722558
221.99770954095587
186.76078949141638
159.1757617111891
138.64289285780563
124.13352945704482
114.40757464478999
108.22350164491202
104.49186380815279
102.35266881121579
101.1860533166285
100.5798005263446
100.27907492435963
100.13655103471619
100.07229734948795
100.04579576996359
100.03869428092759
100.04579574762147
100.07229728696775
100.13655099270767
100.27907482844685
100.57979932828664
101.18605226802349
102.35266753783573
104.49185803821194
108.22349640827275
114.4075519894098
124.13350502306501
138.64283387308524
159.17569362820623
186.76071932549974
221.99756204076317
222.02084465462755
186.78479082307592
159.2004573665061
138.6681324188381
124.15917934570395
114.43352200040289
108.24965595310091
104.51815619686519
102.37904952402339
101.21248818819043
100.6062672348291
100.30555957274179
100.16304535715528
100.09879661559054
100.0722973092357
100.06519647174126
100.07229728691132
100.09879655311651
100.16304531523838
100.30555947701252
100.60626603717327
101.21248714023464
102.37904825170345
104.51815042873648
108.24965071899183
114.43349934898548
124.15915491659247
138.668073440638
159.20038929056906
186.78472066397043
222.02069716211167
222.07708216651986
186.84308472738005
159.26042520124165
138.72940760778332
124.22143608071504
114.49648576324054
108.31310792878206
104.58193116384494
102.44302917601208
101.27659209157697
100.67044340234561
100.36977600969215
100.22728326491176
100.16304537594999
100.13655101327474
100.12945158471622
100.13655099098584
100.16304531356886
100.22728322318073
100.36977591434139
100.6704422055435
101.27659104501579
102.44302790600929
104.5819253997638
108.31310270040849
114.49646312097866
124.22141166298677
138.7293486450196
159.26035714210806
186.843014584599
222.0769346924006
222.20206992724505
186.97263495962244
159.39366723378924
138.8655229649879
124.35969553138143
114.63627823866601
108.45394988141304
104.72346070634143
102.58498981041518
101.41881140065756
100.81281131513605
100.51222567496468
100.36977595156141
100.3055595331614
100.27907484447215
100.27197815460072
100.27907482224578
100.30555947094616
100.36977591016522
100.51222558031185
100.81281011996467
101.41881035680399
102.58498854501148
104.7234549505137
108.45394466496873
114.6362556158793
124.35967113827054
138.86546403608784
159.39359921191533
186.97256485330976
222.20192249426088
222.4663037934174
187.2464798011434
159.67527599701805
139.15313910860843
124.65176536177181
114.93150783687322
108.751323346622
105.02222473979774
102.88461609831467
101.71894894801206
101.11323887813755
100.81281069380012
100.67044272189221
100.60626657190639
100.57979982272624
100.5727081763253
100.5797998006022
100.60626650996714
100.67044268105825
100.81281060034723
101.11323768588743
101.71894790908453
102.88461484148122
105.02221899982882
108.75131815361756
114.93148525336582
124.65174101928406
139.15308025052732
159.67520805408003
187.24640977282934
222.46615644849302
222.99989328612637
187.79950341402818
160.24389258957078
139.73375759296533
125.24122345547977
115.52718909839423
109.3511895871424
105.62477854496656
103.48881826728015
102.32411704877495
101.71894812535315
101.41880995505443
101.27659058390262
101.21248669533911
101.18605178193954
101.17896902453109
101.18605175997357
101.2124866338328
101.27659054395406
101.41880986353746
101.71894693803638
102.32411601827597
103.4888170254706
105.62477283376782
109.3511844376981
115.52716659014278
125.24119921218578
139.73369887646564
160.24382480692432
187.79943354594008
222.99974612235457
224.02846025950652
188.86544018599778
161.33972394789254
140.85247925559656
126.37669759289588
116.67436853016622
110.50617272221304
106.78472481331093
104.65177645918887
103.48882023537142
102.88461724461607
102.58499033056502
102.44302962763501
102.37904998429818
102.35266922682523
102.34560149083218
102.35266920509018
102.37904992343222
102.44302958899468
102.58499024197314
102.88461606514764
103.4888192183922
104.65177524204984
106.78471915118308
110.50616764898034
116.67434615840843
126.37667353431198
140.85242080931945
161.33965647715763
188.86537063435097
224.02831345391425
225.91749477508222
190.823004714599
163.35190027916735
142.9062684722591
128.4607565237748
118.7794248594232
112.62511174969956
108.9124116643414
106.78471855870457
105.62477424684957
105.02221961374127
104.72345494235465
104.58192531461486
104.51815034111696
104.49185790034532
104.48481450831518
104.4918578789289
104.51815028114511
104.58192527778124
104.72345485788775
105.02221844601176
105.62477325011288
106.78471737928074
108.9124060804289
112.62510680108895
118.77940272067649
128.46073279055048
142.9062105171394
163.35183338972666
190.8229357643009
225.91734865131005
229.2175371730008
194.24259969700375
166.86642480016337
146.49279313718873
132.09935329482175
122.45389642834692
116.32311722633351
112.62511760049834
110.50617237535363
109.35119120873746
108.75132414375157
108.45395002337253
108.31310795352897
108.24965593972716
108.22350156290743
108.21649600676714
108.22350154190633
108.24965588093164
108.31310791901903
108.45394994431031
108.75132299250896
109.35119024015977
110.50617124923718
112.6251121322803
116.32311246629185
122.453874660853
132.09933009970823
146.49273602902986
166.86635894771112
194.24253184899976
229.2173923024357
234.69349691987082
199.916652495853
172.69728870754054
152.44207371136184
138.13381793472712
128.546677352642
122.45387765214038
118.77941187664466
116.67434940892262
115.52717194380729
114.9314898451729
114.63625954615925
114.49646688271932
114.43350301108711
114.40755554706918
114.40060639468878
114.40755552657978
114.43350295375089
114.49646685097886
114.63625947363943
114.9314887156653
115.52717101145522
116.67434835193666
118.77940656613497
122.45387315285338
128.546656130112
138.13379556462448
152.442017978431
172.69722462457312
199.9165866049459
234.69335428753487
243.31558624348926
208.85038341372044
181.8769125464447
161.80666025831312
147.63081558764736
138.13380491871413
132.09932168879428
128.46073077009635
126.37666588519643
125.24119375080382
124.65173480720873
124.35966420001394
124.22140442950298
124.15914743742819
124.13349734472285
124.12662887191601
124.13349732482976
124.15914738179983
124.22140440079917
124.35966413475622
124.65173370462801
125.2411928613517
126.37666490974937
128.46072565647242
132.09931751463853
138.1337844219483
147.63079435851785
161.80660659672176
181.87685133418316
208.85032092164477
243.31544753454077
256.1909227218733
222.19057006240595
195.5829680908663
175.78697891932256
161.80664077634952
152.44204111659127
146.49274232010768
142.90622379302837
140.85242899102795
139.73370936918343
139.1530899848165
138.8654729505293
138.72935706487812
138.6680812896567
138.6428412715494
138.63608359804172
138.6428412523162
138.6680812359184
138.72935703920547
138.8654728925782
139.15308891368454
139.7337085262722
140.8524281020686
142.90621890345096
146.49273850602037
152.4420214872905
161.8066209214506
175.7869279840262
195.5829112796994
222.19051334661776
256.1907910124703
274.42634382730495
241.08380341136515
214.99280022052304
195.58294167767278
181.8768654306755
172.69722777602118
166.86634662890276
163.35182916937546
161.3396480061
160.2438184874302
159.67520069146917
159.39359113320526
159.26034831867642
159.2003791898491
159.17568223326066
159.16907078107633
159.1756822147229
159.20037913809676
159.26034829570645
159.3935910817841
159.67519965517155
160.24381769052886
161.33964719821125
163.35182451152218
166.8663431623885
172.6972090706916
181.87684699600246
195.58289365819616
214.9927485932055
241.08375736753948
274.4262245943075
298.9408662717805
266.4820738689559
241.0838407084406
222.19057818739446
208.85036639499705
199.9166215886609
194.24255305205486
190.8229702539229
188.86540181333507
187.7994647112711
187.24643963154358
186.9725941850291
186.8430449736913
186.78474706487458
186.7607415755898
186.7543157769159
186.7607415577565
186.78474701511985
186.84304495279315
186.97259413857913
187.2464386321976
187.79946395558827
188.86540107044402
190.82296581401664
194.24254986823723
199.91660376365465
208.85034918267806
222.19053286153647
241.08379242881384
266.48203692902246
298.94078994385563
330.2707812867864
298.9407984008823
274.4262798078583
256.19082769423943
243.31546536795818
234.69332585711305
229.21738612900526
225.9173563757344
224.02831834821086
222.99975034298384
222.46614161147465
222.20192531866365
222.07693840944358
222.02069664083865
221.9975389326163
221.99134025810594
221.9975389154771
222.02069659303154
222.0769383897812
222.20192527508806
222.46614065020574
222.9997496206452
224.028317646539
225.91735212373962
229.21738312398858
234.69330878933667
243.31544902259287
256.1907843856136
274.4262344545544
298.9407525213563
330.270715226105
