# vtk DataFile Version 2.0
Unstructured Grid Example
ASCII
DATASET UNSTRUCTURED_GRID

POINTS 961 float
0.100000001 0.00499999989 0
0.0966666639 0.00499999989 0
0.0933333337 0.00499999989 0
0.0900000036 0.00499999989 0
0.086666666 0.00499999989 0
0.0833333358 0.00499999989 0
0.0799999982 0.00499999989 0
0.0766666681 0.00499999989 0
0.0733333305 0.00499999989 0
0.0700000003 0.00499999989 0
0.0666666701 0.00499999989 0
0.0633333325 0.00499999989 0
0.0599999987 0.00499999989 0
0.0566666685 0.00499999989 0
0.0533333346 0.00499999989 0
0.0500000007 0.00499999989 0
0.0466666669 0.00499999989 0
0.043333333 0.00499999989 0
0.0399999991 0.00499999989 0
0.0366666652 0.00499999989 0
0.0333333351 0.00499999989 0
0.0299999993 0.00499999989 0
0.0266666673 0.00499999989 0
0.0233333334 0.00499999989 0
0.0199999996 0.00499999989 0
0.0166666675 0.00499999989 0
0.0133333337 0.00499999989 0
0.00999999978 0.00499999989 0
0.00666666683 0.00499999989 0
0.00333333341 0.00499999989 0
0 0.00499999989 0
0.100000001 0.00166666671 0
0.0966666639 0.00166666671 0
0.0933333337 0.00166666671 0
0.0900000036 0.00166666671 0
0.086666666 0.00166666671 0
0.0833333358 0.00166666671 0
0.0799999982 0.00166666671 0
0.0766666681 0.00166666671 0
0.0733333305 0.00166666671 0
0.0700000003 0.00166666671 0
0.0666666701 0.00166666671 0
0.0633333325 0.00166666671 0
0.0599999987 0.00166666671 0
0.0566666685 0.00166666671 0
0.0533333346 0.00166666671 0
0.0500000007 0.00166666671 0
0.0466666669 0.00166666671 0
0.043333333 0.00166666671 0
0.0399999991 0.00166666671 0
0.0366666652 0.00166666671 0
0.0333333351 0.00166666671 0
0.0299999993 0.00166666671 0
0.0266666673 0.00166666671 0
0.0233333334 0.00166666671 0
0.0199999996 0.00166666671 0
0.0166666675 0.00166666671 0
0.0133333337 0.00166666671 0
0.00999999978 0.00166666671 0
0.00666666683 0.00166666671 0
0.00333333341 0.00166666671 0
0 0.00166666671 0
0.100000001 -0.00166666671 0
0.0966666639 -0.00166666671 0
0.0933333337 -0.00166666671 0
0.0900000036 -0.00166666671 0
0.086666666 -0.00166666671 0
0.0833333358 -0.00166666671 0
0.0799999982 -0.00166666671 0
0.0766666681 -0.00166666671 0
0.0733333305 -0.00166666671 0
0.0700000003 -0.00166666671 0
0.0666666701 -0.00166666671 0
0.0633333325 -0.00166666671 0
0.0599999987 -0.00166666671 0
0.0566666685 -0.00166666671 0
0.0533333346 -0.00166666671 0
0.0500000007 -0.00166666671 0
0.0466666669 -0.00166666671 0
0.043333333 -0.00166666671 0
0.0399999991 -0.00166666671 0
0.0366666652 -0.00166666671 0
0.0333333351 -0.00166666671 0
0.0299999993 -0.00166666671 0
0.0266666673 -0.00166666671 0
0.0233333334 -0.00166666671 0
0.0199999996 -0.00166666671 0
0.0166666675 -0.00166666671 0
0.0133333337 -0.00166666671 0
0.00999999978 -0.00166666671 0
0.00666666683 -0.00166666671 0
0.00333333341 -0.00166666671 0
0 -0.00166666671 0
0.100000001 -0.00499999989 0
0.0966666639 -0.00499999989 0
0.0933333337 -0.00499999989 0
0.0900000036 -0.00499999989 0
0.086666666 -0.00499999989 0
0.0833333358 -0.00499999989 0
0.0799999982 -0.00499999989 0
0.0766666681 -0.00499999989 0
0.0733333305 -0.00499999989 0
0.0700000003 -0.00499999989 0
0.0666666701 -0.00499999989 0
0.0633333325 -0.00499999989 0
0.0599999987 -0.00499999989 0
0.0566666685 -0.00499999989 0
0.0533333346 -0.00499999989 0
0.0500000007 -0.00499999989 0
0.0466666669 -0.00499999989 0
0.043333333 -0.00499999989 0
0.0399999991 -0.00499999989 0
0.0366666652 -0.00499999989 0
0.0333333351 -0.00499999989 0
0.0299999993 -0.00499999989 0
0.0266666673 -0.00499999989 0
0.0233333334 -0.00499999989 0
0.0199999996 -0.00499999989 0
0.0166666675 -0.00499999989 0
0.0133333337 -0.00499999989 0
0.00999999978 -0.00499999989 0
0.00666666683 -0.00499999989 0
0.00333333341 -0.00499999989 0
0 -0.00499999989 0
0.100000001 -0.00833333377 0
0.0966666639 -0.00833333377 0
0.0933333337 -0.00833333377 0
0.0900000036 -0.00833333377 0
0.086666666 -0.00833333377 0
0.0833333358 -0.00833333377 0
0.0799999982 -0.00833333377 0
0.0766666681 -0.00833333377 0
0.0733333305 -0.00833333377 0
0.0700000003 -0.00833333377 0
0.0666666701 -0.00833333377 0
0.0633333325 -0.00833333377 0
0.0599999987 -0.00833333377 0
0.0566666685 -0.00833333377 0
0.0533333346 -0.00833333377 0
0.0500000007 -0.00833333377 0
0.0466666669 -0.00833333377 0
0.043333333 -0.00833333377 0
0.0399999991 -0.00833333377 0
0.0366666652 -0.00833333377 0
0.0333333351 -0.00833333377 0
0.0299999993 -0.00833333377 0
0.0266666673 -0.00833333377 0
0.0233333334 -0.00833333377 0
0.0199999996 -0.00833333377 0
0.0166666675 -0.00833333377 0
0.0133333337 -0.00833333377 0
0.00999999978 -0.00833333377 0
0.00666666683 -0.00833333377 0
0.00333333341 -0.00833333377 0
0 -0.00833333377 0
0.100000001 -0.0116666667 0
0.0966666639 -0.0116666667 0
0.0933333337 -0.0116666667 0
0.0900000036 -0.0116666667 0
0.086666666 -0.0116666667 0
0.0833333358 -0.0116666667 0
0.0799999982 -0.0116666667 0
0.0766666681 -0.0116666667 0
0.0733333305 -0.0116666667 0
0.0700000003 -0.0116666667 0
0.0666666701 -0.0116666667 0
0.0633333325 -0.0116666667 0
0.0599999987 -0.0116666667 0
0.0566666685 -0.0116666667 0
0.0533333346 -0.0116666667 0
0.0500000007 -0.0116666667 0
0.0466666669 -0.0116666667 0
0.043333333 -0.0116666667 0
0.0399999991 -0.0116666667 0
0.0366666652 -0.0116666667 0
0.0333333351 -0.0116666667 0
0.0299999993 -0.0116666667 0
0.0266666673 -0.0116666667 0
0.0233333334 -0.0116666667 0
0.0199999996 -0.0116666667 0
0.0166666675 -0.0116666667 0
0.0133333337 -0.0116666667 0
0.00999999978 -0.0116666667 0
0.00666666683 -0.0116666667 0
0.00333333341 -0.0116666667 0
0 -0.0116666667 0
0.100000001 -0.0149999997 0
0.0966666639 -0.0149999997 0
0.0933333337 -0.0149999997 0
0.0900000036 -0.0149999997 0
0.086666666 -0.0149999997 0
0.0833333358 -0.0149999997 0
0.0799999982 -0.0149999997 0
0.0766666681 -0.0149999997 0
0.0733333305 -0.0149999997 0
0.0700000003 -0.0149999997 0
0.0666666701 -0.0149999997 0
0.0633333325 -0.0149999997 0
0.0599999987 -0.0149999997 0
0.0566666685 -0.0149999997 0
0.0533333346 -0.0149999997 0
0.0500000007 -0.0149999997 0
0.0466666669 -0.0149999997 0
0.043333333 -0.0149999997 0
0.0399999991 -0.0149999997 0
0.0366666652 -0.0149999997 0
0.0333333351 -0.0149999997 0
0.0299999993 -0.0149999997 0
0.0266666673 -0.0149999997 0
0.0233333334 -0.0149999997 0
0.0199999996 -0.0149999997 0
0.0166666675 -0.0149999997 0
0.0133333337 -0.0149999997 0
0.00999999978 -0.0149999997 0
0.00666666683 -0.0149999997 0
0.00333333341 -0.0149999997 0
0 -0.0149999997 0
0.100000001 -0.0183333326 0
0.0966666639 -0.0183333326 0
0.0933333337 -0.0183333326 0
0.0900000036 -0.0183333326 0
0.086666666 -0.0183333326 0
0.0833333358 -0.0183333326 0
0.0799999982 -0.0183333326 0
0.0766666681 -0.0183333326 0
0.0733333305 -0.0183333326 0
0.0700000003 -0.0183333326 0
0.0666666701 -0.0183333326 0
0.0633333325 -0.0183333326 0
0.0599999987 -0.0183333326 0
0.0566666685 -0.0183333326 0
0.0533333346 -0.0183333326 0
0.0500000007 -0.0183333326 0
0.0466666669 -0.0183333326 0
0.043333333 -0.0183333326 0
0.0399999991 -0.0183333326 0
0.0366666652 -0.0183333326 0
0.0333333351 -0.0183333326 0
0.0299999993 -0.0183333326 0
0.0266666673 -0.0183333326 0
0.0233333334 -0.0183333326 0
0.0199999996 -0.0183333326 0
0.0166666675 -0.0183333326 0
0.0133333337 -0.0183333326 0
0.00999999978 -0.0183333326 0
0.00666666683 -0.0183333326 0
0.00333333341 -0.0183333326 0
0 -0.0183333326 0
0.100000001 -0.0216666665 0
0.0966666639 -0.0216666665 0
0.0933333337 -0.0216666665 0
0.0900000036 -0.0216666665 0
0.086666666 -0.0216666665 0
0.0833333358 -0.0216666665 0
0.0799999982 -0.0216666665 0
0.0766666681 -0.0216666665 0
0.0733333305 -0.0216666665 0
0.0700000003 -0.0216666665 0
0.0666666701 -0.0216666665 0
0.0633333325 -0.0216666665 0
0.0599999987 -0.0216666665 0
0.0566666685 -0.0216666665 0
0.0533333346 -0.0216666665 0
0.0500000007 -0.0216666665 0
0.0466666669 -0.0216666665 0
0.043333333 -0.0216666665 0
0.0399999991 -0.0216666665 0
0.0366666652 -0.0216666665 0
0.0333333351 -0.0216666665 0
0.0299999993 -0.0216666665 0
0.0266666673 -0.0216666665 0
0.0233333334 -0.0216666665 0
0.0199999996 -0.0216666665 0
0.0166666675 -0.0216666665 0
0.0133333337 -0.0216666665 0
0.00999999978 -0.0216666665 0
0.00666666683 -0.0216666665 0
0.00333333341 -0.0216666665 0
0 -0.0216666665 0
0.100000001 -0.0250000004 0
0.0966666639 -0.0250000004 0
0.0933333337 -0.0250000004 0
0.0900000036 -0.0250000004 0
0.086666666 -0.0250000004 0
0.0833333358 -0.0250000004 0
0.0799999982 -0.0250000004 0
0.0766666681 -0.0250000004 0
0.0733333305 -0.0250000004 0
0.0700000003 -0.0250000004 0
0.0666666701 -0.0250000004 0
0.0633333325 -0.0250000004 0
0.0599999987 -0.0250000004 0
0.0566666685 -0.0250000004 0
0.0533333346 -0.0250000004 0
0.0500000007 -0.0250000004 0
0.0466666669 -0.0250000004 0
0.043333333 -0.0250000004 0
0.0399999991 -0.0250000004 0
0.0366666652 -0.0250000004 0
0.0333333351 -0.0250000004 0
0.0299999993 -0.0250000004 0
0.0266666673 -0.0250000004 0
0.0233333334 -0.0250000004 0
0.0199999996 -0.0250000004 0
0.0166666675 -0.0250000004 0
0.0133333337 -0.0250000004 0
0.00999999978 -0.0250000004 0
0.00666666683 -0.0250000004 0
0.00333333341 -0.0250000004 0
0 -0.0250000004 0
0.100000001 -0.0283333343 0
0.0966666639 -0.0283333343 0
0.0933333337 -0.0283333343 0
0.0900000036 -0.0283333343 0
0.086666666 -0.0283333343 0
0.0833333358 -0.0283333343 0
0.0799999982 -0.0283333343 0
0.0766666681 -0.0283333343 0
0.0733333305 -0.0283333343 0
0.0700000003 -0.0283333343 0
0.0666666701 -0.0283333343 0
0.0633333325 -0.0283333343 0
0.0599999987 -0.0283333343 0
0.0566666685 -0.0283333343 0
0.0533333346 -0.0283333343 0
0.0500000007 -0.0283333343 0
0.0466666669 -0.0283333343 0
0.043333333 -0.0283333343 0
0.0399999991 -0.0283333343 0
0.0366666652 -0.0283333343 0
0.0333333351 -0.0283333343 0
0.0299999993 -0.0283333343 0
0.0266666673 -0.0283333343 0
0.0233333334 -0.0283333343 0
0.0199999996 -0.0283333343 0
0.0166666675 -0.0283333343 0
0.0133333337 -0.0283333343 0
0.00999999978 -0.0283333343 0
0.00666666683 -0.0283333343 0
0.00333333341 -0.0283333343 0
0 -0.0283333343 0
0.100000001 -0.0316666663 0
[...]
POINT_DATA 961
SCALARS Temp float 1
LOOKUP_TABLE default
284.6413282147881
252.79550911262675
230.10364359132322
215.23143369012206
206.27289075263684
201.30505719523444
198.76021003040807
197.55037187394888
197.0137526121948
196.7904560008204
196.70280328148127
196.6701753325033
196.6586035802167
196.65468358349233
196.6534371471205
196.65315632199633
196.6534371465653
196.6546835815593
196.65860358188854
196.67017533791204
196.70280317201963
196.79045594039135
197.01375264622
197.55037101603656
198.7602099764602
201.3050509508943
206.27288558301697
215.23141097580086
230.10362176110996
252.79551104684913
284.64128333437776
252.79559643756753
219.84117433385433
196.35808294746846
180.9661742273289
171.693734376916
166.55129313360104
163.91669768281318
162.66404108797823
162.10836124429426
161.87710467334765
161.78631636048152
161.7525172442966
161.74052877626792
161.7364671808506
161.73517559682506
161.73488458090293
161.73517559624366
161.73646717882522
161.74052877792383
161.75251724965145
161.78631624631802
161.8771046084024
162.1083612726713
162.66404018050557
163.91669757560595
166.55128653557114
171.69372868794645
180.96614978985176
196.35805825955217
219.84115851811495
252.79551467951916
230.10372547389645
196.35808606502076
172.30777723030747
156.54105448998507
147.04055612200102
141.77018285442438
139.0692264605236
137.78460583500447
137.21455904056975
136.9772449365511
136.88404809811692
136.84934128469698
136.83702708052394
136.83285391103402
136.83152649823901
136.8312273560733
136.83152649762448
136.83285390888966
136.83702708201236
136.8493412895075
136.8840479787591
136.97724486344697
137.21455905110787
137.78460485298282
139.0692262150698
141.77017574663356
147.04054943577563
156.54102738349533
172.3077461547144
196.35805816065547
230.1036247933384
215.2315201085237
180.96618373528204
156.5410624004849
140.52465201222782
130.8707133183637
125.51328309105537
122.76660818228977
121.45968114297644
120.87947679207807
120.63782444832209
120.54288096996964
120.50750795625643
120.49495194083558
120.49069505648413
120.48934050620646
120.48903516995291
120.48934050555448
120.49069505420493
120.4949519420484
120.5075079601831
120.5428808453419
120.63782436497625
120.87947677765935
121.45968007587273
122.76660775854803
125.51327543875705
130.8707055351709
140.5246222574057
156.54102656819788
180.96614881528973
215.23141106889224
206.27300139867117
171.69376739919377
147.04058795473853
130.87073763145216
121.12134854357711
115.70899901238268
112.93303889075594
111.61159277301144
111.02466853780996
110.78009950183606
110.6839631346143
110.64812821961301
110.63540213024334
110.63108557294296
110.62971144859996
110.62940160913486
110.62971144791001
110.63108557052753
110.63540213113181
110.64812822251743
110.68396300514776
110.78009940809055
111.02466849740651
111.61159162646594
112.93303829664947
115.70899089779674
121.12133986256258
130.87070602224264
147.04054924120254
171.69372886750946
206.27288812288396
201.30517500089843
166.55132898160772
141.77021701517586
125.51330973957839
115.7090012930819
110.26453732870752
107.47114539823302
106.14089324156487
105.54981433531239
105.30340715531138
105.20650479566582
105.17036787428655
105.15752865631828
105.15317176178823
105.15178421644183
105.15147125994774
105.15178421571696
105.15317175924892
105.15752865688968
105.17036787621451
105.20650466219152
105.30340705256924
105.54981427261426
106.1408920321181
107.47114467179456
110.26452888756019
115.70899202289766
125.5132770349604
141.77017675913808
166.55128864908258
201.30505964942733
198.76033360023695
163.9167393763434
139.06926691787774
122.76664149165077
112.9330479780535
107.4711522948289
104.66811023552032
103.33287979679928
102.73940075517294
102.49190830969778
102.39454388415393
102.35822095163854
102.3453106533725
102.34092793536932
102.33953165473721
102.3392166470567
102.3395316539831
102.34092793272792
102.34531065367396
102.35822095275753
102.39454374768206
102.49190820015686
102.7394006760597
103.33287854417344
104.66810942176281
107.47114365565633
112.93303837416092
122.76660821170772
139.06922589990947
163.91669819603086
198.76021727665815
197.55048848557485
162.6640802867921
137.78464534517053
121.45971404191334
111.61160162304944
106.1408999779078
103.33287964846856
101.9950224157355
101.40024678334221
101.15215387073059
101.0545276328587
101.0180968232335
101.00514436757861
101.00074600623314
100.99934433394584
100.9990280444191
100.99934433316925
101.00074600351469
101.00514436767517
101.01809682375789
101.05452749435572
101.15215375663095
101.400246693621
101.99502113696079
103.33287878435567
106.14089123232183
111.6115918500877
121.45968048575912
137.78460397741935
162.66403873027602
197.55037173159067
197.01386318995023
162.10839933856323
137.2145989000847
120.87951047532995
111.02467833447196
105.54982209393066
102.73940165437678
101.40024784068794
100.80481613456726
100.55641154109274
100.45864587816936
100.42215614796905
100.40918009393025
100.40477276916604
100.40336794295447
100.40305089327543
100.40336794216212
100.40477276639437
100.40918009388633
100.42215614810043
100.45864573841455
100.55641142425031
100.80481603873224
101.4002465477286
102.73940076428163
105.54981329656384
111.02466848322183
120.87947679639589
137.21455738213774
162.10835762474906
197.01374625603307
196.790566871785
161.87714302573772
136.9772845545739
120.63785787687607
110.78010908036046
105.30341472699837
102.49190903473277
101.15215475938469
100.55641137291026
100.30785473494743
100.21001920129326
100.17349914013013
100.16051061411063
100.1560984312839
100.15469185699462
100.15437437973969
100.15469185619175
100.1560984284784
100.16051061397924
100.17349914002565
100.2100190608332
100.30785461660926
100.55641127389005
101.15215345943477
102.49190813243108
105.30340590646013
110.78009919553408
120.63782414695108
136.9772429759895
161.87710124979833
196.79044986672787
196.70292492352493
161.7863563469916
136.88408803860028
120.54291447657283
110.68397275518441
105.20651240887476
102.39454465112182
101.0545285637207
100.45864575158424
100.21001924259535
100.11215069913075
100.07561590274108
100.0626211478827
100.05820647332577
100.05679898089876
100.05648127554119
100.0567989800897
100.05820647050042
100.06262114770118
100.07561590250715
100.11215055830549
100.2100191235112
100.45864565104625
101.05452726060264
102.39454374352809
105.20650357869296
110.68396285689069
120.54288072672193
136.88404643688088
161.78631454779543
196.70280789177707
196.67029776106327
161.75255753488648
136.84938145446282
120.50754165583886
110.64813800570633
105.17037563092828
102.3582218484574
101.01809787725117
100.4221561413678
100.17349930016641
100.07561602106223
100.03907445701532
100.02607675879167
100.02166087380724
100.02025292421726
100.01993510343097
100.02025292340475
100.02166087097115
100.0260767585838
100.03907445671602
100.07561588006223
100.17349918073892
100.42215604016151
101.01809657279932
102.35822093872424
105.17036679698055
110.64812810232196
120.50750789861695
136.84933984436123
161.75251572740228
196.67018071978555
196.6587156039251
161.7405678194447
136.83706722454335
120.4949858051293
110.63541203022031
105.1575364734859
102.34531157966121
101.00514543642831
100.40918009591014
100.16051078031703
100.06262127151781
100.02607676385855
100.01307774813573
100.00866130591626
100.00725314050739
100.00693526432897
100.00725313969296
100.00866130307469
100.01307774791486
100.02607676352862
100.06262113044001
100.16051066074266
100.40917999442965
101.00514413145044
102.34531066911515
105.15752763814876
110.63540212501137
120.49495204531294
136.83702561154533
161.74052600913566
196.65859855940363
196.65479499573217
161.73650597622841
136.83289465358038
120.49072928731786
110.631095656303
105.15317965991851
102.34092889426843
101.0007470869419
100.4047727747096
100.15609859796092
100.05820659634657
100.02166087791005
100.00866130486568
100.00424462034069
100.00283635874186
100.00251845747732
100.00283635792655
100.00424461749652
100.00866130463898
100.02166087756693
100.05820645523646
100.15609847832802
100.40477267312393
101.00074578176914
102.34092798343107
105.15317082409574
110.63108575047266
120.49069552663083
136.8328530396259
161.73646416500026
196.65467795015013
196.65355312237236
161.73521859557007
136.8315686426187
120.48937530039343
110.62972175973205
105.15179220695575
102.33953265086168
100.99934543003981
100.4033679555787
100.15469202774628
100.05679910695801
100.02025293102055
100.00725314205783
100.00283636132053
100.0014280606805
100.0011101490894
100.00142805986486
100.00283635847535
100.00725314182881
100.02025293067221
100.05679896583591
100.15469190809229
100.40336785395638
100.9993441248015
102.33953173992923
105.1517833709772
110.62971185370691
120.48934153943561
136.83152702837117
161.73517678406373
196.65343607646156
196.65329502624465
161.73493185700715
136.83127085845388
120.48907042397641
110.62941209146554
105.15147931600195
102.33921766836222
100.99902915031049
100.40305090998451
100.15437455253536
100.05648140294487
100.01993511134923
100.00693526692318
100.00251846107976
100.00111015010879
100.00079223576074
100.00111014929308
100.00251845823432
100.00693526669362
100.01993511099965
100.05648126182017
100.1543744328771
100.40305080835535
100.99902784506003
102.33921675741337
105.15147047999636
110.6294021854085
120.48903666297319
136.83122924415895
161.73489004546516
196.65317798026268
196.6535759595568
161.73522297365585
136.83157007737188
120.4893758076126
110.6297219554092
105.15179228304487
102.33953268002232
100.99934544096085
100.40336795962746
100.15469202930205
100.05679910764432
100.02025293141494
100.00725314235781
100.0028363615909
100.00142806094206
100.0011101493491
100.00142806012636
100.00283635874572
100.00725314212885
100.02025293106718
100.05679896652371
100.15469190965165
100.40336785801277
100.99934413573669
102.33953176911406
105.15178344710357
110.62971204943725
120.4893420467235
136.8315284632063
161.7351811622458
196.65345891371763
196.65479993078148
161.73651052648853
136.83289630440652
120.49072999767391
110.63109595358289
105.15317978225328
102.3409289430245
101.00074710589226
100.40477278208726
100.15609860104146
100.05820659789966
100.0216608789421
100.00866130572692
100.00424462114793
100.00283635953296
100.0025184582648
100.00283635871754
100.00424461830372
100.00866130550038
100.02166087860017
100.05820645679326
100.15609848141817
100.40477268052297
101.00074580076175
102.34092803226196
105.15317094655018
110.63108604792718
120.49069623721805
136.8328546907327
161.73646871557116
196.65468288550755
196.65871584236268
161.74056828018897
136.8370683212838
120.49498640059335
110.63541232119451
105.15753660394316
102.34531163547797
101.00514545988153
100.40918010616615
100.16051078548061
100.06262127481465
100.02607676650284
100.01307775056179
100.00866130827228
100.00725314284219
100.00693526665901
100.00725314202758
100.00866130543045
100.01307775034087
100.02607676617443
100.06262113374362
100.16051066592674
100.40918000473563
101.00514415500956
102.34531072513006
105.15752776893773
110.63540241648643
120.49495264146056
136.83702670913127
161.74052647082752
196.65859879880307
196.67028869322908
161.75255800544087
136.84938196461295
120.50754207213134
110.64813823725389
105.17037574776363
102.35822190476404
101.0180979049766
100.42215615665768
100.17349931041514
100.07561602939218
100.03907446465527
100.0260767661959
100.02166088113472
100.02025293152091
100.01993511072936
100.02025293070781
100.02166087829735
100.02607676598629
100.03907446435596
100.07561588840072
100.17349919102342
100.4221560555537
101.01809660076424
102.35822099551372
105.17036691467187
110.64812833521925
120.50750831681323
136.84934035692086
161.7525162006901
196.67017165474226
196.70293483258354
161.7863571315614
136.88408861381458
120.54291481161022
110.68397297441605
105.20651255017262
102.39454474714573
101.05452863644716
100.45864581353291
100.2100192999851
100.11215075473471
100.07561595769077
100.06262120260615
100.05820652797503
100.05679903552506
100.05648133016201
100.05679903471442
100.0582065251459
100.06262120241779
100.07561595744819
100.11215061390945
100.21001918094468
100.45864571316959
101.05452733380925
102.39454384062495
105.20650372203902
110.68396307953371
120.54288106676805
136.8840470186119
161.78631533989324
196.7028178085242
196.79056894859934
161.87714460173297
136.9772849248811
120.63785807462754
110.78010918368274
105.30341476650712
102.49190903511469
101.15215473906515
100.55641134288057
100.30785470078725
100.21001916551246
100.17349910375512
100.16051057752999
100.15609839463556
100.154691820325
100.15437434306443
100.15469181951842
100.1560983918203
100.16051057737806
100.1734991036149
100.21001902500859
100.30785458244917
100.5564112440692
101.15215343991909
102.49190813492578
105.30340595044017
110.78009930686011
120.63782435707235
136.9772433629614
161.87710284543317
196.7904519637626
197.01386319147096
162.1083994008223
137.21459947099424
120.87951104804287
111.02467881227683
105.5498224997108
102.73940201949169
101.40024818624764
100.80481647170836
100.55641187491133
100.45864621076738
100.42215648014499
100.40918042596735
100.40477310115938
100.40336827493414
100.40305122525007
100.40336827413407
100.4047730983661
100.40918042587336
100.42215648017397
100.45864607083787
100.55641175786009
100.80481637587327
101.40024689422863
102.73940113286643
105.54981371099291
111.0246689781777
120.87947739751182
137.2145579930976
162.108357735472
197.01374630789758
197.55048287532802
162.6640793128329
137.78464568274183
121.45971418812003
111.61160158602856
106.14089983645522
103.3328794599268
101.99502220832191
101.40024656898937
101.15215365398875
101.05452741533469
101.01809660546203
101.00514414973028
101.00074578836069
100.99934411606498
100.99902782653274
100.99934411527413
101.00074578559985
101.00514414972089
101.01809660574678
101.0545272763515
101.15215353908513
101.40024647832782
101.99502092954705
103.33287859978898
106.14089110483505
111.6115918457382
121.45968069178038
137.78460440485023
162.66403786900437
197.55036623979873
198.76033059535442
163.91674473244186
139.06927016114994
122.76664412443176
112.93305033755031
107.47115456396658
104.66811248106015
103.33288203913146
102.73940299866683
102.49191055445411
102.39454612962152
102.358223197425
102.3453128992838
102.34093018132438
102.3395339007045
102.33921889302094
102.33953389992625
102.34093017860819
102.3453128993872
102.3582231980611
102.39454599207649
102.49191044280009
102.7394029160835
103.33288078253028
104.66811166730251
107.47114594056194
112.93304078592736
122.7666109575172
139.0692293298843
163.916703798753
198.76021453529614
201.30520694150556
166.55133368747565
141.77021922000375
125.51331100319494
115.70900237769739
110.26453841332965
107.47114651172805
106.14089437654421
105.54981548180827
105.30340830702818
105.20650594949267
105.17036902889264
105.15752981119073
105.15317291674509
105.15178537142091
105.15147241492285
105.15178537065862
105.15317291408596
105.1575298114303
105.17036902996429
105.20650581396987
105.30340819981474
105.549815410461
106.14089315313115
107.47114576952129
110.26452997218205
115.70899316680712
125.51327848106332
141.77017931958855
166.55129386381492
201.305092148606
206.2729944017414
171.6937649163317
147.04058326328018
130.8707329724515
121.12134415493445
115.70899483444097
112.93303483043626
111.61158876951215
111.02466455888006
110.78009553260618
110.68395916891922
110.64812425511636
110.63539816612638
110.63108160893788
110.62970748462202
110.62939764515009
110.62970748387875
110.63108160634768
110.63539816651361
110.64812425667068
110.68395903604112
110.78009543085666
111.02466450132516
111.61158759029468
112.9330341840595
115.70898666055989
121.12133547391865
130.8707015822486
147.04054515108155
171.69372739029353
206.2728822693089
215.231515212886
180.966182910068
156.54106522464892
140.5246569862496
130.87071947315675
125.51328983537897
122.76661520774017
121.45968829287045
120.879483993267
120.63783166925859
120.5428881980454
120.50751518676893
120.49495917213707
120.49070228802769
120.48934773781542
120.48904240155981
120.48934773709394
120.49070228551604
120.49495917266549
120.50751518879142
120.54288806840863
120.63783157354261
120.87948395044472
121.45968716595094
122.76661467096835
125.51328200059254
130.87071147095403
140.52462723142781
156.54103025778014
180.9661498730651
215.23140860667385
230.10369583520358
196.3580636313125
172.3077632114863
156.54104419637292
147.04054747474976
141.77017499616247
139.0692189576073
137.7845984822304
137.21455174693395
136.97723766469284
136.88404083378424
136.8493340228153
136.837019819397
136.83284665012607
136.8315192373855
136.8312200952121
136.83151923668765
136.83284664769945
136.83701982003862
136.84933402521594
136.8840407079094
136.97723757492378
137.21455171742122
137.7845974103478
139.06921852544886
141.7701675327459
147.04054018718026
156.54101622446322
172.307732135889
196.35803992928874
230.10360018518153
252.79556906049433
219.8411836958475
196.35810231546444
180.96619742239284
171.69375980054207
166.55131966585554
163.91672473071657
162.66406835807794
162.1083886037864
161.87713206658105
161.78634376573257
161.75254465360862
161.74055618688794
161.73649459187206
161.73520300795738
161.73491199203812
161.7352030072844
161.73649458953386
161.74055618759502
161.75254465622618
161.7863436440442
161.8771319819961
162.10838858369917
162.66406733791445
163.91672437687987
166.55131255896706
171.69375310591658
180.96617110192284
196.35807342518777
219.84116788008907
252.79551495225027
284.6413076196067
252.79550402180715
230.103636316547
215.23142982579526
206.272888804442
201.30505623595482
198.7602095250941
197.55037156096694
197.01375237486408
196.79045579131716
196.70280308160477
196.6701751357754
196.65860338446697
196.65468338803038
196.65343695173271
196.6531561266032
196.65343695108527
196.6546833857818
196.65860338517828
196.67017513840054
196.70280296444741
196.79045571066476
197.01375235854633
197.55037058460474
198.76020920762517
201.30504943301418
206.2728824914569
215.23140467805842
230.10360945578068
252.79547830623065
284.64126273922494
