# vtk DataFile Version 2.0
Unstructured Grid Example
ASCII
DATASET UNSTRUCTURED_GRID

POINTS 961.0 float
0.100000001 0.00499999989 0
0.0966666639 0.00499999989 0
0.0933333337 0.00499999989 0
0.0900000036 0.00499999989 0
0.086666666 0.00499999989 0
0.0833333358 0.00499999989 0
0.0799999982 0.00499999989 0
0.0766666681 0.00499999989 0
0.0733333305 0.00499999989 0
0.0700000003 0.00499999989 0
0.0666666701 0.00499999989 0
0.0633333325 0.00499999989 0
0.0599999987 0.00499999989 0
0.0566666685 0.00499999989 0
0.0533333346 0.00499999989 0
0.0500000007 0.00499999989 0
0.0466666669 0.00499999989 0
0.043333333 0.00499999989 0
0.0399999991 0.00499999989 0
0.0366666652 0.00499999989 0
0.0333333351 0.00499999989 0
0.0299999993 0.00499999989 0
0.0266666673 0.00499999989 0
0.0233333334 0.00499999989 0
0.0199999996 0.00499999989 0
0.0166666675 0.00499999989 0
0.0133333337 0.00499999989 0
0.00999999978 0.00499999989 0
0.00666666683 0.00499999989 0
0.00333333341 0.00499999989 0
0.0 0.00499999989 0
0.100000001 0.00166666671 0
0.0966666639 0.00166666671 0
0.0933333337 0.00166666671 0
0.0900000036 0.00166666671 0
0.086666666 0.00166666671 0
0.0833333358 0.00166666671 0
0.0799999982 0.00166666671 0
0.0766666681 0.00166666671 0
0.0733333305 0.00166666671 0
0.0700000003 0.00166666671 0
0.0666666701 0.00166666671 0
0.0633333325 0.00166666671 0
0.0599999987 0.00166666671 0
0.0566666685 0.00166666671 0
0.0533333346 0.00166666671 0
0.0500000007 0.00166666671 0
0.0466666669 0.00166666671 0
0.043333333 0.00166666671 0
0.0399999991 0.00166666671 0
0.0366666652 0.00166666671 0
0.0333333351 0.00166666671 0
0.0299999993 0.00166666671 0
0.0266666673 0.00166666671 0
0.0233333334 0.00166666671 0
0.0199999996 0.00166666671 0
0.0166666675 0.00166666671 0
0.0133333337 0.00166666671 0
0.00999999978 0.00166666671 0
0.00666666683 0.00166666671 0
0.00333333341 0.00166666671 0
0.0 0.00166666671 0
0.100000001 -0.00166666671 0
0.0966666639 -0.00166666671 0
0.0933333337 -0.00166666671 0
0.0900000036 -0.00166666671 0
0.086666666 -0.00166666671 0
0.0833333358 -0.00166666671 0
0.0799999982 -0.00166666671 0
0.0766666681 -0.00166666671 0
0.0733333305 -0.00166666671 0
0.0700000003 -0.00166666671 0
0.0666666701 -0.00166666671 0
0.0633333325 -0.00166666671 0
0.0599999987 -0.00166666671 0
0.0566666685 -0.00166666671 0
0.0533333346 -0.00166666671 0
0.0500000007 -0.00166666671 0
0.0466666669 -0.00166666671 0
0.043333333 -0.00166666671 0
0.0399999991 -0.00166666671 0
0.0366666652 -0.00166666671 0
0.0333333351 -0.00166666671 0
0.0299999993 -0.00166666671 0
0.0266666673 -0.00166666671 0
0.0233333334 -0.00166666671 0
0.0199999996 -0.00166666671 0
0.0166666675 -0.00166666671 0
0.0133333337 -0.00166666671 0
0.00999999978 -0.00166666671 0
0.00666666683 -0.00166666671 0
0.00333333341 -0.00166666671 0
0.0 -0.00166666671 0
0.100000001 -0.00499999989 0
0.0966666639 -0.00499999989 0
0.0933333337 -0.00499999989 0
0.0900000036 -0.00499999989 0
0.086666666 -0.00499999989 0
0.0833333358 -0.00499999989 0
0.0799999982 -0.00499999989 0
0.0766666681 -0.00499999989 0
0.0733333305 -0.00499999989 0
0.0700000003 -0.00499999989 0
0.0666666701 -0.00499999989 0
0.0633333325 -0.00499999989 0
0.0599999987 -0.00499999989 0
0.0566666685 -0.00499999989 0
0.0533333346 -0.00499999989 0
0.0500000007 -0.00499999989 0
0.0466666669 -0.00499999989 0
0.043333333 -0.00499999989 0
0.0399999991 -0.00499999989 0
0.0366666652 -0.00499999989 0
0.0333333351 -0.00499999989 0
0.0299999993 -0.00499999989 0
0.0266666673 -0.00499999989 0
0.0233333334 -0.00499999989 0
0.0199999996 -0.00499999989 0
0.0166666675 -0.00499999989 0
0.0133333337 -0.00499999989 0
0.00999999978 -0.00499999989 0
0.00666666683 -0.00499999989 0
0.00333333341 -0.00499999989 0
0.0 -0.00499999989 0
0.100000001 -0.00833333377 0
0.0966666639 -0.00833333377 0
0.0933333337 -0.00833333377 0
0.0900000036 -0.00833333377 0
0.086666666 -0.00833333377 0
0.0833333358 -0.00833333377 0
0.0799999982 -0.00833333377 0
0.0766666681 -0.00833333377 0
0.0733333305 -0.00833333377 0
0.0700000003 -0.00833333377 0
0.0666666701 -0.00833333377 0
0.0633333325 -0.00833333377 0
0.0599999987 -0.00833333377 0
0.0566666685 -0.00833333377 0
0.0533333346 -0.00833333377 0
0.0500000007 -0.00833333377 0
0.0466666669 -0.00833333377 0
0.043333333 -0.00833333377 0
0.0399999991 -0.00833333377 0
0.0366666652 -0.00833333377 0
0.0333333351 -0.00833333377 0
0.0299999993 -0.00833333377 0
0.0266666673 -0.00833333377 0
0.0233333334 -0.00833333377 0
0.0199999996 -0.00833333377 0
0.0166666675 -0.00833333377 0
0.0133333337 -0.00833333377 0
0.00999999978 -0.00833333377 0
0.00666666683 -0.00833333377 0
0.00333333341 -0.00833333377 0
0.0 -0.00833333377 0
0.100000001 -0.0116666667 0
0.0966666639 -0.0116666667 0
0.0933333337 -0.0116666667 0
0.0900000036 -0.0116666667 0
0.086666666 -0.0116666667 0
0.0833333358 -0.0116666667 0
0.0799999982 -0.0116666667 0
0.0766666681 -0.0116666667 0
0.0733333305 -0.0116666667 0
0.0700000003 -0.0116666667 0
0.0666666701 -0.0116666667 0
0.0633333325 -0.0116666667 0
0.0599999987 -0.0116666667 0
0.0566666685 -0.0116666667 0
0.0533333346 -0.0116666667 0
0.0500000007 -0.0116666667 0
0.0466666669 -0.0116666667 0
0.043333333 -0.0116666667 0
0.0399999991 -0.0116666667 0
0.0366666652 -0.0116666667 0
0.0333333351 -0.0116666667 0
0.0299999993 -0.0116666667 0
0.0266666673 -0.0116666667 0
0.0233333334 -0.0116666667 0
0.0199999996 -0.0116666667 0
0.0166666675 -0.0116666667 0
0.0133333337 -0.0116666667 0
0.00999999978 -0.0116666667 0
0.00666666683 -0.0116666667 0
0.00333333341 -0.0116666667 0
0.0 -0.0116666667 0
0.100000001 -0.0149999997 0
0.0966666639 -0.0149999997 0
0.0933333337 -0.0149999997 0
0.0900000036 -0.0149999997 0
0.086666666 -0.0149999997 0
0.0833333358 -0.0149999997 0
0.0799999982 -0.0149999997 0
0.0766666681 -0.0149999997 0
0.0733333305 -0.0149999997 0
0.0700000003 -0.0149999997 0
0.0666666701 -0.0149999997 0
0.0633333325 -0.0149999997 0
0.0599999987 -0.0149999997 0
0.0566666685 -0.0149999997 0
0.0533333346 -0.0149999997 0
0.0500000007 -0.0149999997 0
0.0466666669 -0.0149999997 0
0.043333333 -0.0149999997 0
0.0399999991 -0.0149999997 0
0.0366666652 -0.0149999997 0
0.0333333351 -0.0149999997 0
0.0299999993 -0.0149999997 0
0.0266666673 -0.0149999997 0
0.0233333334 -0.0149999997 0
0.0199999996 -0.0149999997 0
0.0166666675 -0.0149999997 0
0.0133333337 -0.0149999997 0
0.00999999978 -0.0149999997 0
0.00666666683 -0.0149999997 0
0.00333333341 -0.0149999997 0
0.0 -0.0149999997 0
0.100000001 -0.0183333326 0
0.0966666639 -0.0183333326 0
0.0933333337 -0.0183333326 0
0.0900000036 -0.0183333326 0
0.086666666 -0.0183333326 0
0.0833333358 -0.0183333326 0
0.0799999982 -0.0183333326 0
0.0766666681 -0.0183333326 0
0.0733333305 -0.0183333326 0
0.0700000003 -0.0183333326 0
0.0666666701 -0.0183333326 0
0.0633333325 -0.0183333326 0
0.0599999987 -0.0183333326 0
0.0566666685 -0.0183333326 0
0.0533333346 -0.0183333326 0
0.0500000007 -0.0183333326 0
0.0466666669 -0.0183333326 0
0.043333333 -0.0183333326 0
0.0399999991 -0.0183333326 0
0.0366666652 -0.0183333326 0
0.0333333351 -0.0183333326 0
0.0299999993 -0.0183333326 0
0.0266666673 -0.0183333326 0
0.0233333334 -0.0183333326 0
0.0199999996 -0.0183333326 0
0.0166666675 -0.0183333326 0
0.0133333337 -0.0183333326 0
0.00999999978 -0.0183333326 0
0.00666666683 -0.0183333326 0
0.00333333341 -0.0183333326 0
0.0 -0.0183333326 0
0.100000001 -0.0216666665 0
0.0966666639 -0.0216666665 0
0.0933333337 -0.0216666665 0
0.0900000036 -0.0216666665 0
0.086666666 -0.0216666665 0
0.0833333358 -0.0216666665 0
0.0799999982 -0.0216666665 0
0.0766666681 -0.0216666665 0
0.0733333305 -0.0216666665 0
0.0700000003 -0.0216666665 0
0.0666666701 -0.0216666665 0
0.0633333325 -0.0216666665 0
0.0599999987 -0.0216666665 0
0.0566666685 -0.0216666665 0
0.0533333346 -0.0216666665 0
0.0500000007 -0.0216666665 0
0.0466666669 -0.0216666665 0
0.043333333 -0.0216666665 0
0.0399999991 -0.0216666665 0
0.0366666652 -0.0216666665 0
0.0333333351 -0.0216666665 0
0.0299999993 -0.0216666665 0
0.0266666673 -0.0216666665 0
0.0233333334 -0.0216666665 0
0.0199999996 -0.0216666665 0
0.0166666675 -0.0216666665 0
0.0133333337 -0.0216666665 0
0.00999999978 -0.0216666665 0
0.00666666683 -0.0216666665 0
0.00333333341 -0.0216666665 0
0.0 -0.0216666665 0
0.100000001 -0.0250000004 0
0.0966666639 -0.0250000004 0
0.0933333337 -0.0250000004 0
0.0900000036 -0.0250000004 0
0.086666666 -0.0250000004 0
0.0833333358 -0.0250000004 0
0.0799999982 -0.0250000004 0
0.0766666681 -0.0250000004 0
0.0733333305 -0.0250000004 0
0.0700000003 -0.0250000004 0
0.0666666701 -0.0250000004 0
0.0633333325 -0.0250000004 0
0.0599999987 -0.0250000004 0
0.0566666685 -0.0250000004 0
0.0533333346 -0.0250000004 0
0.0500000007 -0.0250000004 0
0.0466666669 -0.0250000004 0
0.043333333 -0.0250000004 0
0.0399999991 -0.0250000004 0
0.0366666652 -0.0250000004 0
0.0333333351 -0.0250000004 0
0.0299999993 -0.0250000004 0
0.0266666673 -0.0250000004 0
0.0233333334 -0.0250000004 0
0.0199999996 -0.0250000004 0
0.0166666675 -0.0250000004 0
0.0133333337 -0.0250000004 0
0.00999999978 -0.0250000004 0
0.00666666683 -0.0250000004 0
0.00333333341 -0.0250000004 0
0.0 -0.0250000004 0
0.100000001 -0.0283333343 0
0.0966666639 -0.0283333343 0
0.0933333337 -0.0283333343 0
0.0900000036 -0.0283333343 0
0.086666666 -0.0283333343 0
0.0833333358 -0.0283333343 0
0.0799999982 -0.0283333343 0
0.0766666681 -0.0283333343 0
0.0733333305 -0.0283333343 0
0.0700000003 -0.0283333343 0
0.0666666701 -0.0283333343 0
0.0633333325 -0.0283333343 0
0.0599999987 -0.0283333343 0
0.0566666685 -0.0283333343 0
0.0533333346 -0.0283333343 0
0.0500000007 -0.0283333343 0
0.0466666669 -0.0283333343 0
0.043333333 -0.0283333343 0
0.0399999991 -0.0283333343 0
0.0366666652 -0.0283333343 0
0.0333333351 -0.0283333343 0
0.0299999993 -0.0283333343 0
0.0266666673 -0.0283333343 0
0.0233333334 -0.0283333343 0
0.0199999996 -0.0283333343 0
0.0166666675 -0.0283333343 0
0.0133333337 -0.0283333343 0
0.00999999978 -0.0283333343 0
0.00666666683 -0.0283333343 0
0.00333333341 -0.0283333343 0
0.0 -0.0283333343 0
[...]
POINT_DATA 961.0
SCALARS Temp float 1
LOOKUP_TABLE default
318.63125904958196
287.11563723144724
262.9301510026935
245.3996329245902
233.41709882710254
225.69789788408906
221.0095416982736
218.3219524738382
216.86539214684322
216.1175259982699
215.75286860157317
215.58359712599582
215.50864794086826
215.47706353768575
215.46480366783985
215.46164479661738
215.46480366116455
215.47706351808367
215.5086479459051
215.58359713883223
215.75286805610608
216.11752568795825
216.86539204671672
218.32194996384797
221.00954084054166
225.6978859902161
233.417089282436
245.3996012513337
262.93012235953296
287.1156337358482
318.6312090590403
287.11572047583604
254.47287418264787
229.42175037016256
211.26323009104962
198.8509592592397
190.85455300493552
185.9975792336474
183.21317044972884
181.70404496594898
180.92913920011918
180.55127206888977
180.37585677211024
180.29818195202466
180.2654467595462
180.2527394443284
180.2494651592872
180.25273943735317
180.26544673905568
180.29818195677507
180.3758567841978
180.5512715006146
180.92913887128307
181.70404484521967
183.21316781090124
185.99757826071544
190.85454050022605
198.8509489749598
211.2631963249571
229.4217187260145
254.47285386097647
287.11563861844104
262.9302257405997
229.42175280197736
203.70469311095488
185.06189269851814
172.31725512251938
164.1057064772593
159.1173506239361
156.2571765485552
154.70672656641278
153.91046061115702
153.52210645412924
153.34178910589213
153.26192863220047
153.22826614953476
153.21519673686032
153.21182879412376
153.21519672952704
153.22826612797215
153.261928635764
153.34178911491594
153.52210586158762
153.91046025302262
154.70672639566305
156.2571737333001
159.1173493978289
164.10569315265784
172.31724353608874
185.06185584089008
203.70465505555748
229.42172153804583
262.9301293200494
245.39971251113585
211.26323632913562
185.06189814836915
166.06580752208305
153.07775148555567
144.70790957160173
139.62238309499696
136.70585212611454
135.12447579561805
134.31212234390358
133.91581812186195
133.73175999724768
133.65022065865722
133.61584136581416
133.6024904742916
133.59904946423214
133.60249046656511
133.61584134307017
133.65022066036929
133.73176000153873
133.91581750502166
134.3121219498898
135.12447555627733
136.70584911204017
139.62238154195356
144.70789536665512
153.07773843538445
166.065767511807
185.0618550685745
211.2631983468253
245.39960751779526
233.4172083516507
198.85099577389772
172.3172919621367
153.0777836468011
139.9211965602626
131.4411327536219
126.28750668219458
123.33119896302728
121.72782927415463
120.90394448134977
120.50189537161789
120.31511184784678
120.23233934253811
120.19742937939195
120.183868654192
120.18037293286419
120.18386864606897
120.19742935545932
120.23233934206621
120.31511184662654
120.50189473224127
120.90394405028728
121.72782896136702
123.33119575760435
126.28750480156988
131.4411177609573
139.92118222659403
153.0777412189662
172.31724547124927
198.8509536508251
233.4170981525366
225.69800876044397
190.85459035736542
164.10574430524272
144.7079428076542
131.4411336210076
122.8884964603095
117.6896886992495
114.70676889977234
113.08855266489701
112.25681044579176
111.85080891094688
111.66213197557019
111.57849440252393
111.5432086708433
111.52949813249928
111.52596314355577
111.52949812400803
111.54320864581486
111.57849439986573
111.6621319689233
111.85080825232042
112.25680998127
113.08855228546875
114.70676553317831
117.68968654291616
122.88848085855216
131.44111834339694
144.707898745189
164.10569565826677
190.85454574636634
225.69789544253277
221.0096634049486
185.9976274534335
159.11739966446143
139.6224277933605
126.28751903390287
117.68970029340733
112.46251970140632
109.46272846013127
107.83500328995527
106.99817431312128
106.58958561726693
106.39965532452786
106.3154386728645
106.27989866751237
106.26608578636001
106.26252380961947
106.26608577755329
106.27989864155364
106.31543866826986
106.39965531316737
106.5895849435037
106.9981738216235
107.83500285741866
109.4627249725536
112.46251734212098
117.68968427306646
126.2875031362888
139.62238271463423
159.1173497322312
185.9975814034243
221.00954828231824
218.32207383577656
183.21321810634896
156.25722503355357
136.70589627216935
123.3312106796179
114.70677986300188
109.46272779251186
106.45279825429468
104.81929405321854
103.97933656271235
103.56913694530628
103.378416379379
103.29382999108567
103.25812564957195
103.24424591475136
103.24066618886357
103.24424590569389
103.25812562288357
103.29382998494121
103.37841636432978
103.56913626056252
103.97933605153133
104.81929358271975
106.45279468455917
109.46272529912929
114.70676358060776
123.33119440809584
136.70585060340338
156.25717437622765
183.2131712605208
218.3219577134952
216.86551644581755
181.7040955527596
154.7067780722607
135.12452302924942
121.72784407984155
113.08856675280785
107.83500574846921
104.81929719307985
103.18245834858936
102.34067214436489
101.929518161034
101.73832293744258
101.65351139496828
101.61770563348723
101.60378415302534
101.60019326138116
101.60378414378265
101.6177056062675
101.65351138768916
101.73832291975883
101.92951746891639
102.34067162004904
103.18245785339005
104.81929357223251
107.83500317403806
113.0885503186403
121.72782759833723
135.12447703817963
154.70672702712957
181.70404828733186
216.86539979546714
216.1176499288866
180.92918934692264
153.91051166969868
134.312169124288
120.90395880584974
112.256824052268
106.99817627903649
103.97933921027084
102.34067164796758
101.49786870715587
101.0861764482023
100.89470954063599
100.80976719908497
100.77390166423234
100.7599552671556
100.75635765762982
100.75995525778524
100.77390163665224
100.80976719103975
100.89470952121907
101.08617575148146
101.49786817475405
102.34067113797109
103.97933555998523
106.99817365921184
112.25680753596438
120.90394221361586
134.31212296681963
153.9104604276199
180.9291418707076
216.11753301275098
215.75299258288348
180.55132223959666
153.52215753933015
133.91586493076272
120.50190971423972
111.85082253796708
106.58958759984027
103.56913961086627
101.92951768124222
101.08617646522815
100.67419491753819
100.48257971465543
100.39756484915846
100.36166566154895
100.34770504702813
100.34410357183242
100.34770503757532
100.36166563374047
100.39756484063268
100.4825796941809
100.67419421813436
101.08617592819981
101.92951716300948
103.56913594475121
106.58958495623921
111.85080597983875
120.50189306686421
133.91581869181158
153.52210620209584
180.55127466242516
215.75287553921544
215.5837214960563
180.37590733232457
153.34184059238805
133.73180721634353
120.31512660161052
111.66214601902696
106.39965772444882
103.37841946474715
101.73832287787145
100.89470997873724
100.48258013608668
100.2908876825279
100.2058344160397
100.16991712350124
100.1559487526807
100.15234515006723
100.15594874317809
100.16991709555714
100.20583440723294
100.2908876614514
100.48257943521658
100.8947094392331
101.73832235534803
103.37841579063351
106.39965506912291
111.66212944075457
120.31510992819109
133.73176093943292
153.34178921132514
180.37585970898883
215.5836043939702
215.50877234021902
180.29823253666441
153.2619801442064
133.65026790407506
120.23235412073774
111.57850847123954
106.31544109742646
103.29383310160487
101.65351136036912
100.80976766235972
100.39756529582604
100.20583444121863
100.1207617659387
100.08483517301114
100.07086276091125
100.06725803999456
100.07086275138025
100.08483514499147
100.12076175697786
100.20583441982143
100.39756459420248
100.80976712161116
101.65351083574359
103.2938294236764
106.31543843663307
111.5784918837595
120.23233743561867
133.65022161030618
153.26192874386854
180.2981848931521
215.50865521255835
215.47718792142518
180.26549732549904
153.22831764248892
133.6158885918958
120.19744413698199
111.54322271898825
106.27990107102563
103.25812873914323
101.6177055777878
100.77390210645976
100.36166608717875
100.16991712760554
100.08483515193156
100.04890403125634
100.03492962440858
100.03132434676374
100.03492961486273
100.0489040031974
100.0848351428924
100.16991710604908
100.36166538519284
100.7739015651254
101.617705052196
103.25812505950184
106.2798984078271
111.54320612752443
120.19742744687856
133.61584229101211
153.22826623408554
180.26544967358896
215.47707078310086
215.46492806497434
180.25279002319436
153.21524824317203
133.60253771408688
120.18388342535174
111.52951219449534
106.26608820372243
103.24424901834342
101.60378411137027
100.75995572350378
100.3477054868154
100.15594877094544
100.07086275400002
100.03492963858204
100.02095434238183
100.01734881468994
100.02095433282895
100.03492961050503
100.07086274492536
100.15594874931864
100.3477047846735
100.75995518192269
101.60378358537982
103.24424533800851
106.26608553956778
111.5294956014666
120.18386673331668
133.60249141046307
153.2151968316849
180.25274236808863
215.46481092257733
215.4617691983111
180.2495157426454
153.21188030512442
133.59909670890784
120.18038770897228
111.5259772106758
106.2625262321945
103.2406692977862
101.60019322511695
100.75635811942698
100.344104017103
100.15234517383097
100.06725803859277
100.03132436645238
100.01734882020718
100.01374322189649
100.01734881065222
100.03132433837028
100.06725802950847
100.15234515218563
100.34410331492099
100.75635757778444
101.60019269903029
103.24066561728577
106.26252356781853
111.52596061728318
120.18037101649784
133.59905040465452
153.2118288929356
180.24946808681923
215.4616520549681
215.4649280645888
180.25279002281
153.21524824281926
133.60253771378805
120.18388342511783
111.52951219432617
106.26608820360954
103.24424901827406
101.60378411133127
100.75995572348391
100.34770548680635
100.15594877094195
100.07086275399891
100.0349296385819
100.02095434238194
100.01734881469012
100.02095433282908
100.0349296105051
100.07086274492542
100.15594874931871
100.34770478467357
100.75995518192272
101.60378358537993
103.24424533800851
106.26608553956775
111.52949560146665
120.18386673331679
133.60249141046316
153.21519683168484
180.25274236808872
215.4648109225774
215.47718792032887
180.26549732440833
153.22831764149433
133.61588859106234
120.19744413633936
111.54322271853252
106.27990107072905
103.25812873896656
101.61770557769218
100.77390210641326
100.36166608715904
100.16991712759862
100.08483515192997
100.0489040312566
100.03492962440913
100.0313243467642
100.034929614863
100.0489040031976
100.08483514289247
100.16991710604911
100.36166538519288
100.7739015651255
101.61770505219603
103.25812505950185
106.27989840782718
111.54320612752453
120.19742744687855
133.61584229101214
153.22826623408548
180.26544967358896
215.47707078310097
215.50877233755614
180.29823253402338
153.26198014182003
133.65026790210533
120.23235411925158
111.57850847021535
106.31544109678359
103.29383310123943
101.65351136018293
100.80976766227654
100.39756529579512
100.20583444121077
100.12076176593891
100.0848351730132
100.07086276091307
100.06725803999578
100.07086275138097
100.08483514499177
100.12076175697807
100.20583441982158
100.39756459420259
100.8097671216112
101.65351083574359
103.29382942367646
106.31543843663307
111.57849188375954
120.23233743561872
133.65022161030615
153.26192874386845
180.29818489315213
215.50865521255847
215.5837214899557
180.3759073262972
153.34184058700384
133.73180721198366
120.31512659840952
111.66214601690028
106.39965772317643
103.37841946406839
101.73832287755523
100.89470997861494
100.48258013605353
100.29088768252815
100.2058344160482
100.16991712350898
100.1559487526858
100.15234515007013
100.15594874317951
100.16991709555784
100.2058344072333
100.29088766145166
100.48257943521668
100.89470943923321
101.73832235534805
103.37841579063361
106.399655069123
111.66212944075457
120.31510992819113
133.73176093943297
153.3417892113251
180.37585970898877
215.58360439397018
215.75299256954773
180.5513222264834
153.52215752778136
133.9158649216321
120.50190970776362
111.85082253386265
106.58958759753727
103.56913960974478
101.92951768079105
101.08617646510122
100.67419491753833
100.48257971468904
100.39756484919
100.36166566157014
100.34770504704018
100.34410357183859
100.34770503757831
100.3616656337418
100.39756484063331
100.48257969418114
100.6741942181344
101.08617592819995
101.92951716300955
103.56913594475125
106.58958495623932
111.8508059798387
120.50189306686421
133.91581869181167
153.52210620209593
180.55127466242516
215.75287553921552
216.1176499010444
180.9291893197105
153.91051164616377
134.31216910624465
120.90395879361799
112.25682404499483
106.99817627531466
103.97933920870881
102.34067164751147
101.49786870715597
101.08617644832958
100.89470954075884
100.80976719916933
100.77390166428127
100.75995526718107
100.756357657642
100.75995525779068
100.77390163665456
100.80976719104075
100.89470952121945
101.08617575148163
101.49786817475419
102.34067113797127
103.97933555998527
106.9981736592118
112.25680753596433
120.90394221361582
134.3121229668197
153.9104604276199
180.9291418707075
216.1175330127508
216.86551639026675
181.7040954988993
154.7067780267868
135.1245229958021
121.72784405854289
113.08856674126973
107.83500574339408
104.8192971915392
103.18245834858956
102.3406721448212
101.92951816148556
101.73832293775946
101.65351139515616
101.61770563358684
101.60378415307383
101.60019326140322
101.60378414379213
101.61770560627139
101.65351138769081
101.73832291975937
101.92951746891664
102.34067162004915
103.18245785339022
104.81929357223267
107.83500317403818
113.08855031864026
121.72782759833714
135.12447703817946
154.70672702712946
181.70404828733172
216.86539979546686
218.3220737295686
183.2132180045146
156.25722495042325
136.7058962145476
123.33121064620924
114.70677984750465
109.46272778760917
106.45279825429469
104.81929405475924
103.97933656427453
103.56913694642816
103.37841638005875
103.29382999145368
103.25812564975475
103.24424591483604
103.24066618890056
103.24424590570928
103.25812562288971
103.29382998494361
103.37841636433076
103.56913626056281
103.97933605153143
104.81929358271995
106.4527946845593
109.46272529912935
114.70676358060771
123.33119440809574
136.7058506034033
156.2571743762275
183.21317126052082
218.32195771349507
221.00966320909924
185.99762726866018
159.11739952105728
139.6224277026855
126.28751898910154
117.68970027859082
112.46251970140648
109.46272846503426
107.83500329503053
106.99817431684342
106.58958561957057
106.39965532580162
106.31543867351083
106.27989866781805
106.26608578649612
106.26252380967702
106.26608577757652
106.27989864156272
106.31543866827315
106.3996553131686
106.58958494350408
106.99817382162368
107.83500285741871
109.46272497255372
112.46251734212098
117.68968427306636
126.28750313628869
139.62238271463409
159.1173497322309
185.9975814034241
221.0095482823183
225.69800840710786
190.8545900328364
164.10574407285876
144.70794268284996
131.4411335775155
122.88849646030965
117.68968871406642
114.70676891526982
113.0885526764354
112.25681045306533
111.85080891505194
111.66213197769869
111.57849440355274
111.54320867131149
111.52949813270129
111.52596314363885
111.52949812404071
111.54320864582724
111.57849439987031
111.66213196892488
111.85080825232087
112.25680998127004
113.08855228546875
114.70676553317833
117.68968654291618
122.88848085855207
131.4411183433969
144.70789874518886
164.10569565826646
190.8545457463661
225.69789544253246
233.4172077143678
198.85099521011634
172.317291617045
153.07778351597798
139.92119656026284
131.44113279711445
126.28750672699634
123.33119899643619
121.72782929545355
120.90394449358185
120.5018953780947
120.31511185104985
120.23233934403028
120.19742938005068
120.1838686544692
120.18037293297574
120.18386864611195
120.19742935547534
120.23233934207201
120.3151118466286
120.50189473224192
120.90394405028752
121.72782896136712
123.33119575760445
126.28750480156991
131.44111776095724
139.92118222659386
153.07774121896617
172.31724547124898
198.85095365082466
233.41709815253645
245.39971127085417
211.26323536236572
185.06189769926812
166.06580752208322
153.0777516163794
144.70790969640643
139.62238318567236
136.7058521837366
135.12447582906586
134.3121223619473
133.9158181309935
133.7317600016099
133.65022066063372
133.6158413666673
133.60249047464362
133.59904946437143
133.6024904666181
133.6158413430898
133.65022066037625
133.73176000154123
133.91581750502243
134.31212194988993
135.12447555627728
136.70584911204026
139.62238154195364
144.7078953666551
153.07773843538428
166.06576751180685
185.06185506857423
211.26319834682502
245.39960751779495
262.93022328837196
229.42175076116118
203.70469311095582
185.06189314762048
172.31725546761206
164.10570670964393
159.1173507673406
156.25717663168598
154.70672661188684
153.9104606346924
153.52210646567875
153.341789111279
153.2619286345946
153.2282661505514
153.2151967372741
153.21182879428557
153.215196729588
153.22826612799435
153.26192863577185
153.3417891149186
153.5221058615884
153.91046025302288
154.70672639566314
156.25717373330016
159.1173493978288
164.10569315265775
172.31724353608865
185.0618558408899
203.7046550555575
229.42172153804586
262.93012932004916
287.11570728158785
254.47287418265387
229.42175241098272
211.26323105782268
198.85095982302227
190.85455332946572
185.9975794184213
183.2131705515635
181.7040450198095
180.9291392273314
180.55127208200392
180.37585677814042
180.298181954674
180.26544676066044
180.25273944477803
180.2494651594617
180.25273943741854
180.2654467390793
180.2981819567835
180.37585678420064
180.55127150061563
180.92913887128327
181.7040448452197
183.21316781090124
185.99757826071533
190.85454050022577
198.85094897495966
211.26319632495708
229.42171872601423
254.4728538609764
287.115638618441
318.6312590495631
287.11565042569634
262.93015345492523
245.3996341648745
233.41709946438644
225.6978982374261
221.00954189412343
218.3219525800462
216.86539220239416
216.11752602611242
215.75286861491
215.58359713209904
215.5086479435393
215.47706353880565
215.4648036682903
215.46164479679175
215.46480366122978
215.47706351810731
215.50864794591328
215.58359713883505
215.75286805610702
216.11752568795842
216.86539204671686
218.3219499638479
221.00954084054158
225.697885990216
233.4170892824358
245.39960125133348
262.93012235953285
287.11563373584795
318.6312090590404
