# vtk DataFile Version 2.0
Unstructured Grid Example
ASCII
DATASET UNSTRUCTURED_GRID

POINTS 961 float
0.100000001 0.00499999989 0
0.0966666639 0.00499999989 0
0.0933333337 0.00499999989 0
0.0900000036 0.00499999989 0
0.086666666 0.00499999989 0
0.0833333358 0.00499999989 0
0.0799999982 0.00499999989 0
0.0766666681 0.00499999989 0
0.0733333305 0.00499999989 0
0.0700000003 0.00499999989 0
0.0666666701 0.00499999989 0
0.0633333325 0.00499999989 0
0.0599999987 0.00499999989 0
0.0566666685 0.00499999989 0
0.0533333346 0.00499999989 0
0.0500000007 0.00499999989 0
0.0466666669 0.00499999989 0
0.043333333 0.00499999989 0
0.0399999991 0.00499999989 0
0.0366666652 0.00499999989 0
0.0333333351 0.00499999989 0
0.0299999993 0.00499999989 0
0.0266666673 0.00499999989 0
0.0233333334 0.00499999989 0
0.0199999996 0.00499999989 0
0.0166666675 0.00499999989 0
0.0133333337 0.00499999989 0
0.00999999978 0.00499999989 0
0.00666666683 0.00499999989 0
0.00333333341 0.00499999989 0
0 0.00499999989 0
0.100000001 0.00166666671 0
0.0966666639 0.00166666671 0
0.0933333337 0.00166666671 0
0.0900000036 0.00166666671 0
0.086666666 0.00166666671 0
0.0833333358 0.00166666671 0
0.0799999982 0.00166666671 0
0.0766666681 0.00166666671 0
0.0733333305 0.00166666671 0
0.0700000003 0.00166666671 0
0.0666666701 0.00166666671 0
0.0633333325 0.00166666671 0
0.0599999987 0.00166666671 0
0.0566666685 0.00166666671 0
0.0533333346 0.00166666671 0
0.0500000007 0.00166666671 0
0.0466666669 0.00166666671 0
0.043333333 0.00166666671 0
0.0399999991 0.00166666671 0
0.0366666652 0.00166666671 0
0.0333333351 0.00166666671 0
0.0299999993 0.00166666671 0
0.0266666673 0.00166666671 0
0.0233333334 0.00166666671 0
0.0199999996 0.00166666671 0
0.0166666675 0.00166666671 0
0.0133333337 0.00166666671 0
0.00999999978 0.00166666671 0
0.00666666683 0.00166666671 0
0.00333333341 0.00166666671 0
0 0.00166666671 0
0.100000001 -0.00166666671 0
0.0966666639 -0.00166666671 0
0.0933333337 -0.00166666671 0
0.0900000036 -0.00166666671 0
0.086666666 -0.00166666671 0
0.0833333358 -0.00166666671 0
0.0799999982 -0.00166666671 0
0.0766666681 -0.00166666671 0
0.0733333305 -0.00166666671 0
0.0700000003 -0.00166666671 0
0.0666666701 -0.00166666671 0
0.0633333325 -0.00166666671 0
0.0599999987 -0.00166666671 0
0.0566666685 -0.00166666671 0
0.0533333346 -0.00166666671 0
0.0500000007 -0.00166666671 0
0.0466666669 -0.00166666671 0
0.043333333 -0.00166666671 0
0.0399999991 -0.00166666671 0
0.0366666652 -0.00166666671 0
0.0333333351 -0.00166666671 0
0.0299999993 -0.00166666671 0
0.0266666673 -0.00166666671 0
0.0233333334 -0.00166666671 0
0.0199999996 -0.00166666671 0
0.0166666675 -0.00166666671 0
0.0133333337 -0.00166666671 0
0.00999999978 -0.00166666671 0
0.00666666683 -0.00166666671 0
0.00333333341 -0.00166666671 0
0 -0.00166666671 0
0.100000001 -0.00499999989 0
0.0966666639 -0.00499999989 0
0.0933333337 -0.00499999989 0
0.0900000036 -0.00499999989 0
0.086666666 -0.00499999989 0
0.0833333358 -0.00499999989 0
0.0799999982 -0.00499999989 0
0.0766666681 -0.00499999989 0
0.0733333305 -0.00499999989 0
0.0700000003 -0.00499999989 0
0.0666666701 -0.00499999989 0
0.0633333325 -0.00499999989 0
0.0599999987 -0.00499999989 0
0.0566666685 -0.00499999989 0
0.0533333346 -0.00499999989 0
0.0500000007 -0.00499999989 0
0.0466666669 -0.00499999989 0
0.043333333 -0.00499999989 0
0.0399999991 -0.00499999989 0
0.0366666652 -0.00499999989 0
0.0333333351 -0.00499999989 0
0.0299999993 -0.00499999989 0
0.0266666673 -0.00499999989 0
0.0233333334 -0.00499999989 0
0.0199999996 -0.00499999989 0
0.0166666675 -0.00499999989 0
0.0133333337 -0.00499999989 0
0.00999999978 -0.00499999989 0
0.00666666683 -0.00499999989 0
0.00333333341 -0.00499999989 0
0 -0.00499999989 0
0.100000001 -0.00833333377 0
0.0966666639 -0.00833333377 0
0.0933333337 -0.00833333377 0
0.0900000036 -0.00833333377 0
0.086666666 -0.00833333377 0
0.0833333358 -0.00833333377 0
0.0799999982 -0.00833333377 0
0.0766666681 -0.00833333377 0
0.0733333305 -0.00833333377 0
0.0700000003 -0.00833333377 0
0.0666666701 -0.00833333377 0
0.0633333325 -0.00833333377 0
0.0599999987 -0.00833333377 0
0.0566666685 -0.00833333377 0
0.0533333346 -0.00833333377 0
0.0500000007 -0.00833333377 0
0.0466666669 -0.00833333377 0
0.043333333 -0.00833333377 0
0.0399999991 -0.00833333377 0
0.0366666652 -0.00833333377 0
0.0333333351 -0.00833333377 0
0.0299999993 -0.00833333377 0
0.0266666673 -0.00833333377 0
0.0233333334 -0.00833333377 0
0.0199999996 -0.00833333377 0
0.0166666675 -0.00833333377 0
0.0133333337 -0.00833333377 0
0.00999999978 -0.00833333377 0
0.00666666683 -0.00833333377 0
0.00333333341 -0.00833333377 0
0 -0.00833333377 0
0.100000001 -0.0116666667 0
0.0966666639 -0.0116666667 0
0.0933333337 -0.0116666667 0
0.0900000036 -0.0116666667 0
0.086666666 -0.0116666667 0
0.0833333358 -0.0116666667 0
0.0799999982 -0.0116666667 0
0.0766666681 -0.0116666667 0
0.0733333305 -0.0116666667 0
0.0700000003 -0.0116666667 0
0.0666666701 -0.0116666667 0
0.0633333325 -0.0116666667 0
0.0599999987 -0.0116666667 0
0.0566666685 -0.0116666667 0
0.0533333346 -0.0116666667 0
0.0500000007 -0.0116666667 0
0.0466666669 -0.0116666667 0
0.043333333 -0.0116666667 0
0.0399999991 -0.0116666667 0
0.0366666652 -0.0116666667 0
0.0333333351 -0.0116666667 0
0.0299999993 -0.0116666667 0
0.0266666673 -0.0116666667 0
0.0233333334 -0.0116666667 0
0.0199999996 -0.0116666667 0
0.0166666675 -0.0116666667 0
0.0133333337 -0.0116666667 0
0.00999999978 -0.0116666667 0
0.00666666683 -0.0116666667 0
0.00333333341 -0.0116666667 0
0 -0.0116666667 0
0.100000001 -0.0149999997 0
0.0966666639 -0.0149999997 0
0.0933333337 -0.0149999997 0
0.0900000036 -0.0149999997 0
0.086666666 -0.0149999997 0
0.0833333358 -0.0149999997 0
0.0799999982 -0.0149999997 0
0.0766666681 -0.0149999997 0
0.0733333305 -0.0149999997 0
0.0700000003 -0.0149999997 0
0.0666666701 -0.0149999997 0
0.0633333325 -0.0149999997 0
0.0599999987 -0.0149999997 0
0.0566666685 -0.0149999997 0
0.0533333346 -0.0149999997 0
0.0500000007 -0.0149999997 0
0.0466666669 -0.0149999997 0
0.043333333 -0.0149999997 0
0.0399999991 -0.0149999997 0
0.0366666652 -0.0149999997 0
0.0333333351 -0.0149999997 0
0.0299999993 -0.0149999997 0
0.0266666673 -0.0149999997 0
0.0233333334 -0.0149999997 0
0.0199999996 -0.0149999997 0
0.0166666675 -0.0149999997 0
0.0133333337 -0.0149999997 0
0.00999999978 -0.0149999997 0
0.00666666683 -0.0149999997 0
0.00333333341 -0.0149999997 0
0 -0.0149999997 0
0.100000001 -0.0183333326 0
0.0966666639 -0.0183333326 0
0.0933333337 -0.0183333326 0
0.0900000036 -0.0183333326 0
0.086666666 -0.0183333326 0
0.0833333358 -0.0183333326 0
0.0799999982 -0.0183333326 0
0.0766666681 -0.0183333326 0
0.0733333305 -0.0183333326 0
0.0700000003 -0.0183333326 0
0.0666666701 -0.0183333326 0
0.0633333325 -0.0183333326 0
0.0599999987 -0.0183333326 0
0.0566666685 -0.0183333326 0
0.0533333346 -0.0183333326 0
0.0500000007 -0.0183333326 0
0.0466666669 -0.0183333326 0
0.043333333 -0.0183333326 0
0.0399999991 -0.0183333326 0
0.0366666652 -0.0183333326 0
0.0333333351 -0.0183333326 0
0.0299999993 -0.0183333326 0
0.0266666673 -0.0183333326 0
0.0233333334 -0.0183333326 0
0.0199999996 -0.0183333326 0
0.0166666675 -0.0183333326 0
0.0133333337 -0.0183333326 0
0.00999999978 -0.0183333326 0
0.00666666683 -0.0183333326 0
0.00333333341 -0.0183333326 0
0 -0.0183333326 0
0.100000001 -0.0216666665 0
0.0966666639 -0.0216666665 0
0.0933333337 -0.0216666665 0
0.0900000036 -0.0216666665 0
0.086666666 -0.0216666665 0
0.0833333358 -0.0216666665 0
0.0799999982 -0.0216666665 0
0.0766666681 -0.0216666665 0
0.0733333305 -0.0216666665 0
0.0700000003 -0.0216666665 0
0.0666666701 -0.0216666665 0
0.0633333325 -0.0216666665 0
0.0599999987 -0.0216666665 0
0.0566666685 -0.0216666665 0
0.0533333346 -0.0216666665 0
0.0500000007 -0.0216666665 0
0.0466666669 -0.0216666665 0
0.043333333 -0.0216666665 0
0.0399999991 -0.0216666665 0
0.0366666652 -0.0216666665 0
0.0333333351 -0.0216666665 0
0.0299999993 -0.0216666665 0
0.0266666673 -0.0216666665 0
0.0233333334 -0.0216666665 0
0.0199999996 -0.0216666665 0
0.0166666675 -0.0216666665 0
0.0133333337 -0.0216666665 0
0.00999999978 -0.0216666665 0
0.00666666683 -0.0216666665 0
0.00333333341 -0.0216666665 0
0 -0.0216666665 0
0.100000001 -0.0250000004 0
0.0966666639 -0.0250000004 0
0.0933333337 -0.0250000004 0
0.0900000036 -0.0250000004 0
0.086666666 -0.0250000004 0
0.0833333358 -0.0250000004 0
0.0799999982 -0.0250000004 0
0.0766666681 -0.0250000004 0
0.0733333305 -0.0250000004 0
0.0700000003 -0.0250000004 0
0.0666666701 -0.0250000004 0
0.0633333325 -0.0250000004 0
0.0599999987 -0.0250000004 0
0.0566666685 -0.0250000004 0
0.0533333346 -0.0250000004 0
0.0500000007 -0.0250000004 0
0.0466666669 -0.0250000004 0
0.043333333 -0.0250000004 0
0.0399999991 -0.0250000004 0
0.0366666652 -0.0250000004 0
0.0333333351 -0.0250000004 0
0.0299999993 -0.0250000004 0
0.0266666673 -0.0250000004 0
0.0233333334 -0.0250000004 0
0.0199999996 -0.0250000004 0
0.0166666675 -0.0250000004 0
0.0133333337 -0.0250000004 0
0.00999999978 -0.0250000004 0
0.00666666683 -0.0250000004 0
0.00333333341 -0.0250000004 0
0 -0.0250000004 0
0.100000001 -0.0283333343 0
0.0966666639 -0.0283333343 0
0.0933333337 -0.0283333343 0
0.0900000036 -0.0283333343 0
0.086666666 -0.0283333343 0
0.0833333358 -0.0283333343 0
0.0799999982 -0.0283333343 0
0.0766666681 -0.0283333343 0
0.0733333305 -0.0283333343 0
0.0700000003 -0.0283333343 0
0.0666666701 -0.0283333343 0
0.0633333325 -0.0283333343 0
0.0599999987 -0.0283333343 0
0.0566666685 -0.0283333343 0
0.0533333346 -0.0283333343 0
0.0500000007 -0.0283333343 0
0.0466666669 -0.0283333343 0
0.043333333 -0.0283333343 0
0.0399999991 -0.0283333343 0
0.0366666652 -0.0283333343 0
0.0333333351 -0.0283333343 0
0.0299999993 -0.0283333343 0
0.0266666673 -0.0283333343 0
0.0233333334 -0.0283333343 0
0.0199999996 -0.0283333343 0
0.0166666675 -0.0283333343 0
0.0133333337 -0.0283333343 0
0.00999999978 -0.0283333343 0
0.00666666683 -0.0283333343 0
0.00333333341 -0.0283333343 0
0 -0.0283333343 0
0.100000001 -0.0316666663 0
[...]
POINT_DATA 961
SCALARS Temp float 1
LOOKUP_TABLE default
306.97982777314513
274.474480870428
249.84228992683347
232.56235144197873
221.24670753399826
214.33077821684464
210.37984231151748
208.26534907438813
207.20207483432742
206.69803525619702
206.4719784541258
206.37571292727253
206.336662277343
206.32156198970543
206.31610778420094
206.3146593741797
206.31562874684332
206.32007413787673
206.33263027283826
206.36533931811903
206.44648890788798
206.6383577373024
207.06938314733299
207.98611510083248
209.8255699461056
213.2961106956927
219.4351471412517
229.5933048170673
245.29832452445936
267.9771090257427
298.93389235260037
276.7299875209246
242.6049767942771
217.07255298451793
199.11237744671385
187.31891836289378
180.08595260052263
175.93808343095247
173.70920548744868
172.5837695335047
172.048057618908
171.80682334471965
171.70369243613237
171.66170105958489
171.6454072403836
171.63950365302819
171.63793280439106
171.63898488311182
171.6438001738776
171.65736147095754
171.6925695329806
171.77960347839485
171.98460175317754
172.4433082322129
173.41498157186066
175.35677666537427
179.00578857904978
185.43578452559723
196.03750171283093
212.37219230784473
235.9061436620931
267.4630537261257
253.72506463405483
218.81226782443332
192.57870929539246
174.12294557485907
161.97926505965518
154.51275703617446
150.21856867417316
147.9038748436197
146.73132518797016
146.17135924374182
145.9183840283954
145.80989053163344
145.76558032339875
145.74833682015208
145.7420732892445
145.74040422671857
145.7415243988783
145.74664091021774
145.7610157677858
145.7982340255489
145.88997068488587
146.1053988164175
146.5859665707246
147.60080407811765
149.62264122384974
153.41072276730947
160.06676646637558
171.0115810698912
187.83316787545144
211.97890517961207
244.41487701689695
237.47280685232224
202.05979402074396
175.40828600555932
156.62443155315145
144.24623354250787
136.6209311827704
132.22586102237076
129.85115743358077
128.6451961124342
128.0677914550324
127.80626121311396
127.69381021693799
127.64776786925265
127.62980684805602
127.62326883759641
127.62152485656429
127.6226989045155
127.62805027884443
127.64305475160303
127.6818167862542
127.77713756207223
128.00045697962761
128.4974542970297
129.54454328864298
131.62591378225721
135.51712923847268
142.34063749120236
153.54041276327303
170.7248134586501
195.37458819333764
228.48032000001712
226.70616651270385
191.0151643722477
164.12709027589324
145.1535128749435
132.63335530653939
124.90945514989875
120.45033140266804
118.0367482163221
116.80872482560595
116.21959590084313
115.95221491219132
115.83701342217745
115.78974876878706
115.77127422578009
115.76453752261648
115.76273932645246
115.76395430447432
115.76948081753731
115.78495061888614
115.82484343538893
115.92276639249668
116.15176792021477
116.6605077690173
117.73050748139569
119.85399028943019
123.81803389519762
130.76003581365967
142.14142049158082
159.59076133580615
184.60900881392521
218.20321026115397
220.0191541613417
184.19195503367587
157.18524890020052
138.11308460739448
125.51625220314874
117.73693957871349
113.24065072141524
110.80386937051898
109.56234721538044
108.96587701208607
108.69475308647695
108.57775654818897
108.52967918608923
108.51085731477033
108.50398437760046
108.50214907930487
108.50339390249951
108.50904523171086
108.52484325378691
108.56552561343932
108.66524762251065
108.89814194084312
109.41486276093227
110.5003369791716
112.65215105496483
116.66514444432353
123.68700562320264
135.19179111808276
152.82206872198665
178.09213465505513
212.01808498174125
216.12050094247118
180.2375662735785
153.17981420548972
134.06288877504184
121.42932494547712
113.62212204672208
109.10628722814369
106.65684065299382
105.40770376127941
104.80696948278705
104.53361307250822
104.41551954615929
104.36693427054625
104.34789087451871
104.34092965088514
104.33907041921822
104.34033613081799
104.3460724462777
104.36209136309614
104.40329916459883
104.50420560201465
104.73963771107276
105.26151757294079
106.35692894382133
108.5268587787685
112.57110067461
119.64399606394846
131.22773905263773
148.97373241107385
174.40425151135898
208.54046528817702
213.9827758568646
178.0832841032114
151.0083017267317
131.8745055295232
119.22579463951368
111.40621563734817
106.88116900849593
104.42544606626817
103.17237219893569
102.56935071659936
102.2947571736749
102.17603768561361
102.12715476690333
102.10797842537077
102.1009632402964
102.09908951235123
102.10036926015303
102.10616086247774
102.1223216349574
102.16386278613042
102.26551197206187
102.50251878001977
103.02757059145398
104.12904646719541
106.30997125782545
110.37310764508106
117.4767687219743
129.10794946284528
146.92313746474505
172.4490404437702
206.70946781466068
212.8776212221727
176.97718977993108
149.89918987517814
130.76094009599674
118.10725602215014
110.28302084218
105.75416414854622
103.29565368617988
102.04072953583766
101.43658152857542
101.16135368207286
101.0423017370353
100.99325568521823
100.97400443424019
100.96695821197947
100.96507628042524
100.96636508684185
100.97219106112009
100.98843878446905
101.03018160978901
101.13227459619318
101.37021159722853
101.89711810872848
103.00210888763412
105.1893582624039
109.26328997893363
116.38441300884315
128.0423301278118
145.8962253613553
171.47507919330366
205.80396695892225
212.33739485616087
176.44034066312966
149.36385371330277
130.22562535939795
117.57101924477843
109.74546156654668
105.215289679577
102.7556971322936
101.49999354671554
100.89534040723646
100.61981335083688
100.50059771077068
100.45146828557446
100.43217750343736
100.4251145244143
100.42322828529431
100.42452270824768
100.43036911269628
100.44666772679031
100.48852695002084
100.59087268023843
100.82933283390513
101.35727046625814
102.4641946798421
104.65488853003056
108.73464326350174
115.86509548424024
127.53716008800144
145.4113444880914
171.0177074192306
205.38187953010586
212.08692633024873
176.19323737568746
149.11886441285674
129.98170055528695
117.3274073294289
109.50171944847145
104.97122692515146
102.51128937618675
101.25529983615523
100.65044360715045
100.37478784666013
100.2554979049546
100.20632890026157
100.18701863802897
100.17994719287395
100.17805887723561
100.17935664586723
100.18521466530957
100.20154173197398
100.24346506817918
100.34594802319467
100.58468833079533
101.1131709357849
102.2211042266352
104.41357393528666
108.49629503123396
115.63144410602848
127.31055065556532
145.19472625299258
170.81450458575173
205.19573865505308
211.9764392802115
176.0850258897754
149.01221107729896
129.8759903879428
117.22217465871498
109.39665718793646
104.86616481415244
102.4061555843608
101.15008118884754
100.54515403419536
100.26944858916798
100.15012783273697
100.10094146935482
100.08162227680425
100.07454684355535
100.0726576246729
100.07395730652046
100.07982164298618
100.09616390799903
100.138120950779
100.24067494176138
100.47955810072744
101.00831453257797
102.11674760730745
104.31008457800775
108.39423455832225
115.53161630393262
127.21402866295101
145.10284108297915
170.7287823721655
205.11778690319886
211.92994893716892
176.03981947318061
148.96792042411994
129.83229596340752
117.17882671356371
109.35348111160941
104.82305308183895
102.36305175549388
101.10696220863318
100.50201516376043
100.22629301129591
100.10696072934066
100.05776737415175
100.03844438361249
100.0313672026571
100.02947763820033
100.03077836641353
100.03664598543568
100.05299599963021
100.0949699429005
100.19755896990334
100.43651144908775
100.96539864896435
102.0740666742081
104.26780513046043
108.35260684231692
115.49099268569935
127.1748724623406
145.06571901376162
170.6943362505765
205.08668530656735
211.91131909008587
176.021829044618
148.9503968843567
129.8150886174308
117.16181539343658
109.33657874013925
104.806202819255
102.34622069711652
101.09013403684251
100.48518354013792
100.20945669965738
100.09012054264035
100.04092457976797
100.02160007228358
100.01452216814928
100.01263248634439
100.01393375247022
100.01980298654816
100.03615674321308
100.07813871061607
100.18074409261449
100.41972839010022
100.94867462350194
102.05744699894596
104.25136097142087
108.33644332341761
115.47525545327501
127.15975018378896
145.05143937516377
170.68115406823972
205.07486334285795
211.90445090987768
176.01523648124572
148.94400783531543
129.80883999159988
117.15565634058981
109.33047170128363
104.80012254212053
102.34015190149503
101.08406859162018
100.479117827445
100.2033895810044
100.08405201262107
100.03485500680688
100.01552985440881
100.0084516286084
100.00656189032506
100.00786339472167
100.01373334458802
100.03008873860333
100.0720741602181
100.17468646585493
100.41368401226902
100.94265443461978
102.05146890846744
104.24545264684413
108.33064500105141
115.46962207291429
127.1543519721245
145.04636008099766
170.6764864341525
205.0707021747982
211.9028820406246
176.01373485541023
148.94255391878903
129.8074168122252
117.15425060166478
109.3290739985616
104.79872700219066
102.33875543040914
101.08266999544377
100.47771701111459
100.20198694888464
100.08264809373134
100.03345026771451
100.01412463967347
100.00704616963479
100.00515634273513
100.00645788695334
100.01232803557873
100.0286838959534
100.07067027980507
100.17328446088803
100.41228550378794
100.94126216644725
102.05008729233819
104.24408839606967
108.32930775505716
115.46832485258322
127.15311127055385
145.04519541580243
170.67541929936954
205.06975421230604
211.9050634787562
176.01581772494126
148.94455518874133
129.8093527502028
117.1561359413202
109.33092155225079
104.8005474238722
102.34055717024356
101.08445942668556
100.47949869704571
100.20376398507494
100.08442246830548
100.0352231898686
100.01589680470778
100.00881795283021
100.0069279267919
100.00822933012816
100.01409928668303
100.03045475150054
100.0724402651264
100.17505260384142
100.41404996113242
100.94301967412346
102.05183243655995
104.24581276802024
108.33099912742824
115.46996659418501
127.15468225218083
145.04667062212778
170.6767712181999
205.0709552368196
211.91315867394047
176.02358276160237
148.95205380638774
129.81664387904183
117.16327161615513
109.33794544862158
104.80749434465689
102.34745341970687
101.09132383365149
100.48634402368872
100.210598414053
100.09125096318616
100.04204860213274
100.02272068139898
100.01564107506371
100.01375063161306
100.01505165550381
100.02092096211213
100.03727501104842
100.07925740861644
100.1818631813651
100.42084741871933
100.94979232963004
102.0585607403394
104.25246604588142
108.33753230058603
115.47631769881107
127.16077176914742
145.0524035159216
170.68204213382427
205.0756562684605
211.9347314578352
176.04440664566874
148.97227177599774
129.83638976841635
117.18266430984666
109.35708509622476
104.82646079796864
102.36630686719512
101.11010708866769
100.50508582052623
100.22931693129543
100.10995704607703
100.06074836201262
100.04141736312211
100.03433627843006
100.03244502640193
100.03374529332373
100.03961324188154
100.05596423730526
100.09793974639018
100.20053066648684
100.43948455712913
100.96837085938932
102.0770323208162
104.27075327360173
108.35551929847841
115.49384252265475
127.17762353617728
145.06832698522615
170.6967512078267
205.08885577089197
211.98822465665194
176.0964029889663
149.0230471468119
129.88620696592136
117.23176058405392
109.40566309082013
104.87468379846223
102.414298765372
101.15795620627564
100.55285130758809
100.27703597314047
100.15765160746749
100.10843066367819
100.08909379935356
100.08200995523931
100.0801172325812
100.08141613606932
100.08728157503641
100.10362674015414
100.1455886858957
100.24814949840217
100.48704014669894
101.01580107992366
102.12422813990233
104.31753593744553
108.40161543463186
115.53886276714731
127.2210523848849
145.10953152882092
170.7350133501422
205.1234267964375
212.11467497269393
176.2202004972954
149.14464482672082
130.00605065823558
117.35026610143376
109.5231960624298
104.99154588819268
102.53072281424336
101.27410991896696
100.66884743635791
100.3929452775129
100.27351562105989
100.22427227591176
100.2049248488305
100.19783612682578
100.195940879376
100.19723749465386
100.20309863733137
100.21943347389231
100.26137057420947
100.36387446019344
100.60264188519123
101.13115155887502
102.23909637964265
104.43153358882834
108.51413495638224
115.64902129245169
127.32766042934655
145.21110665554068
170.82985211430707
205.20973331413657
212.3997155908516
176.50129206741514
149.42233841492683
130.2809381617454
117.6229455776733
109.79423041444582
105.26142473262615
102.79983862890155
101.54275237033893
100.93721392635118
100.66116030823446
100.54165217959778
100.49237037191115
100.47300501346649
100.46590814043817
100.46400879931872
100.46530182362517
100.47115612038152
100.48747390171287
100.52936848951673
100.63177164290786
100.87031399189642
101.39835087143219
102.50536289266147
104.69607317304522
108.77567547126138
115.90567517478485
127.57683840608944
145.4495319866776
171.0537103983964
205.41495952979622
213.01075279698316
177.1082215439393
150.025308882238
130.88030646261103
118.21925199251338
110.38811957581727
105.85354511107113
103.39075896969844
102.13291596546891
101.52693263637272
101.25063418052969
101.13099935147095
101.08165570064052
101.06226171014117
101.05515197822679
101.05324637357197
101.05453414516913
101.06037833727413
101.07666997626455
101.11849685719567
101.22073373864698
101.45889190581833
101.98609611856048
103.09141700563782
105.2789125245451
109.35279825933773
116.47328855406239
128.1296432548009
145.9807183253608
171.55524858031944
205.87819635432604
214.25246730685222
178.35032545687233
151.26597474853432
132.11838589334252
119.45433495977834
111.62039259026741
107.08353967386593
104.61910728942928
103.36018489057436
102.75355160147664
102.47689027555546
102.3570661602082
102.3076298095575
102.28819293109021
102.28106407564741
102.27914943894075
102.28043009153542
102.28626058975371
102.3025152909273
102.34424233989324
102.44622433778312
102.6837721173162
103.20960886803273
104.31206625582726
106.49396464286683
110.55764691049009
117.66079323478137
129.28964112779397
147.0999505198514
172.6178883528694
206.86701302412942
216.63719917993342
180.75202899565835
153.67708128353783
134.5331277603186
121.8690972479594
114.03346251383496
109.49451283243042
107.02826360605981
105.76802783583435
105.16055617120918
104.88340920939834
104.7633256676261
104.71376035357379
104.69426332417599
104.68710767134125
104.68518076962089
104.68645256765538
104.69226628733746
104.70847341509868
104.75006523319489
104.85168643582345
105.0883356995339
105.61208684623037
106.71003298096585
108.8828489932579
112.92953166499984
120.00311501143159
131.58417943111755
149.32258659398326
174.73951190560055
208.8556394197821
220.95325349094466
185.12653644818565
158.08919138447385
138.9662020188755
126.31175533004739
118.4791184577404
113.94005328349088
111.47264579418041
110.21120532743731
109.60283091588829
109.3251127541259
109.20470725685264
109.154976388889
109.13540052292768
109.12820949358482
109.12626691671016
109.12752876636527
109.13332442017816
109.14947670447546
109.19090200879943
109.29205469925516
109.52748403368001
110.0482915337603
111.13964567609088
113.29876708325875
117.31908154474003
124.34567019700373
135.8492265047558
153.46918024907225
178.71778361665687
212.6104391541076
228.29732071741157
192.61327842287085
165.67160993120632
146.60619867844412
133.98258132988917
126.16424798622953
121.63053098969503
119.16428910585823
117.90247601744349
117.29341837726243
117.01514296279161
116.89438327577896
116.84445767226202
116.82478534926064
116.81755026936014
116.81558883180057
116.81684089269618
116.8226205662902
116.8387182797915
116.87996042673173
116.98055988108432
117.21446870423766
117.73144217796221
118.81388088703271
120.95385336185811
124.9361748594141
131.89318214917566
143.27938340040342
160.71695722349105
185.70361128684618
219.2461115045071
240.02594254055802
204.63060843982987
177.88510187981984
158.9418336341876
146.38770679898306
138.6053701385411
134.0879590607454
131.62785010938015
130.36765565880512
129.7585984354366
129.47994890875827
129.35885846336146
129.30872508405758
129.28894260813706
129.28165565358697
129.27967281912873
129.28091706197398
129.28668766758457
129.3027427131596
129.3438107582095
129.44382354239679
129.67600021747415
130.18836988336898
131.25964517432863
133.37477969594076
137.30626488112816
144.16749971756423
155.3876018557203
172.56204158048496
197.16631290310866
230.19613447721918
257.594332881316
222.70402363312581
196.3047568677491
177.57985988854048
165.15769606031682
157.4467196794122
152.9637354380664
150.51813943010765
149.26304728867126
148.65527401906715
148.37665512327808
148.25533233321806
148.20500110134316
148.18510102257608
148.1777560115807
148.175750209045
148.17699072563357
148.18276480821012
148.1988032274052
148.23973946510253
148.33920485304648
148.569583956624
149.0768441178453
150.13512008273347
152.2202304075347
156.0883342513404
162.8268263130382
173.82852485275527
190.64354254623862
214.72112380195574
247.04213619527638
282.2800904010078
248.1936244621981
222.29960330396824
203.9368174711624
191.73509662357398
184.14548722000157
179.72249510262134
177.30330192923603
176.05832449480965
175.45373438874617
175.17578012101637
175.05440217242116
175.00390779628174
174.98388975423148
174.97648249845722
174.9744531878704
174.97569609831297
174.98149155189353
174.99755306750563
175.0384330940669
175.1374664868012
175.36614607047974
175.86811683349245
176.9121564910957
178.9630641552961
182.7567840259866
189.34779602200564
200.08130824874976
216.44820283707554
239.79889974269764
271.2068804965078
315.19471550188257
281.77072624645245
256.70168236879107
238.8801687820836
227.00905338347297
219.6018348488016
215.2699525790305
212.89166542682534
211.6629607667954
211.06392084945935
210.78744245752725
210.6662482347891
210.61564557938627
210.5955154367027
210.58804328831076
210.58599080877082
210.58724370597096
210.5930822054699
210.60921629730092
210.65013932339218
210.748912076086
210.97611243457786
211.47287030167067
212.50194211194477
214.51541796351347
218.22549113585276
224.64746980640402
235.07026746197909
250.91159191392077
273.46430685824873
303.24271449040367
