# vtk DataFile Version 2.0
Unstructured Grid Example
ASCII
DATASET UNSTRUCTURED_GRID

POINTS 961 float
0.100000001 0.00499999989 0
0.0966666639 0.00499999989 0
0.0933333337 0.00499999989 0
0.0900000036 0.00499999989 0
0.086666666 0.00499999989 0
0.0833333358 0.00499999989 0
0.0799999982 0.00499999989 0
0.0766666681 0.00499999989 0
0.0733333305 0.00499999989 0
0.0700000003 0.00499999989 0
0.0666666701 0.00499999989 0
0.0633333325 0.00499999989 0
0.0599999987 0.00499999989 0
0.0566666685 0.00499999989 0
0.0533333346 0.00499999989 0
0.0500000007 0.00499999989 0
0.0466666669 0.00499999989 0
0.043333333 0.00499999989 0
0.0399999991 0.00499999989 0
0.0366666652 0.00499999989 0
0.0333333351 0.00499999989 0
0.0299999993 0.00499999989 0
0.0266666673 0.00499999989 0
0.0233333334 0.00499999989 0
0.0199999996 0.00499999989 0
0.0166666675 0.00499999989 0
0.0133333337 0.00499999989 0
0.00999999978 0.00499999989 0
0.00666666683 0.00499999989 0
0.00333333341 0.00499999989 0
0 0.00499999989 0
0.100000001 0.00166666671 0
0.0966666639 0.00166666671 0
0.0933333337 0.00166666671 0
0.0900000036 0.00166666671 0
0.086666666 0.00166666671 0
0.0833333358 0.00166666671 0
0.0799999982 0.00166666671 0
0.0766666681 0.00166666671 0
0.0733333305 0.00166666671 0
0.0700000003 0.00166666671 0
0.0666666701 0.00166666671 0
0.0633333325 0.00166666671 0
0.0599999987 0.00166666671 0
0.0566666685 0.00166666671 0
0.0533333346 0.00166666671 0
0.0500000007 0.00166666671 0
0.0466666669 0.00166666671 0
0.043333333 0.00166666671 0
0.0399999991 0.00166666671 0
0.0366666652 0.00166666671 0
0.0333333351 0.00166666671 0
0.0299999993 0.00166666671 0
0.0266666673 0.00166666671 0
0.0233333334 0.00166666671 0
0.0199999996 0.00166666671 0
0.0166666675 0.00166666671 0
0.0133333337 0.00166666671 0
0.00999999978 0.00166666671 0
0.00666666683 0.00166666671 0
0.00333333341 0.00166666671 0
0 0.00166666671 0
0.100000001 -0.00166666671 0
0.0966666639 -0.00166666671 0
0.0933333337 -0.00166666671 0
0.0900000036 -0.00166666671 0
0.086666666 -0.00166666671 0
0.0833333358 -0.00166666671 0
0.0799999982 -0.00166666671 0
0.0766666681 -0.00166666671 0
0.0733333305 -0.00166666671 0
0.0700000003 -0.00166666671 0
0.0666666701 -0.00166666671 0
0.0633333325 -0.00166666671 0
0.0599999987 -0.00166666671 0
0.0566666685 -0.00166666671 0
0.0533333346 -0.00166666671 0
0.0500000007 -0.00166666671 0
0.0466666669 -0.00166666671 0
0.043333333 -0.00166666671 0
0.0399999991 -0.00166666671 0
0.0366666652 -0.00166666671 0
0.0333333351 -0.00166666671 0
0.0299999993 -0.00166666671 0
0.0266666673 -0.00166666671 0
0.0233333334 -0.00166666671 0
0.0199999996 -0.00166666671 0
0.0166666675 -0.00166666671 0
0.0133333337 -0.00166666671 0
0.00999999978 -0.00166666671 0
0.00666666683 -0.00166666671 0
0.00333333341 -0.00166666671 0
0 -0.00166666671 0
0.100000001 -0.00499999989 0
0.0966666639 -0.00499999989 0
0.0933333337 -0.00499999989 0
0.0900000036 -0.00499999989 0
0.086666666 -0.00499999989 0
0.0833333358 -0.00499999989 0
0.0799999982 -0.00499999989 0
0.0766666681 -0.00499999989 0
0.0733333305 -0.00499999989 0
0.0700000003 -0.00499999989 0
0.0666666701 -0.00499999989 0
0.0633333325 -0.00499999989 0
0.0599999987 -0.00499999989 0
0.0566666685 -0.00499999989 0
0.0533333346 -0.00499999989 0
0.0500000007 -0.00499999989 0
0.0466666669 -0.00499999989 0
0.043333333 -0.00499999989 0
0.0399999991 -0.00499999989 0
0.0366666652 -0.00499999989 0
0.0333333351 -0.00499999989 0
0.0299999993 -0.00499999989 0
0.0266666673 -0.00499999989 0
0.0233333334 -0.00499999989 0
0.0199999996 -0.00499999989 0
0.0166666675 -0.00499999989 0
0.0133333337 -0.00499999989 0
0.00999999978 -0.00499999989 0
0.00666666683 -0.00499999989 0
0.00333333341 -0.00499999989 0
0 -0.00499999989 0
0.100000001 -0.00833333377 0
0.0966666639 -0.00833333377 0
0.0933333337 -0.00833333377 0
0.0900000036 -0.00833333377 0
0.086666666 -0.00833333377 0
0.0833333358 -0.00833333377 0
0.0799999982 -0.00833333377 0
0.0766666681 -0.00833333377 0
0.0733333305 -0.00833333377 0
0.0700000003 -0.00833333377 0
0.0666666701 -0.00833333377 0
0.0633333325 -0.00833333377 0
0.0599999987 -0.00833333377 0
0.0566666685 -0.00833333377 0
0.0533333346 -0.00833333377 0
0.0500000007 -0.00833333377 0
0.0466666669 -0.00833333377 0
0.043333333 -0.00833333377 0
0.0399999991 -0.00833333377 0
0.0366666652 -0.00833333377 0
0.0333333351 -0.00833333377 0
0.0299999993 -0.00833333377 0
0.0266666673 -0.00833333377 0
0.0233333334 -0.00833333377 0
0.0199999996 -0.00833333377 0
0.0166666675 -0.00833333377 0
0.0133333337 -0.00833333377 0
0.00999999978 -0.00833333377 0
0.00666666683 -0.00833333377 0
0.00333333341 -0.00833333377 0
0 -0.00833333377 0
0.100000001 -0.0116666667 0
0.0966666639 -0.0116666667 0
0.0933333337 -0.0116666667 0
0.0900000036 -0.0116666667 0
0.086666666 -0.0116666667 0
0.0833333358 -0.0116666667 0
0.0799999982 -0.0116666667 0
0.0766666681 -0.0116666667 0
0.0733333305 -0.0116666667 0
0.0700000003 -0.0116666667 0
0.0666666701 -0.0116666667 0
0.0633333325 -0.0116666667 0
0.0599999987 -0.0116666667 0
0.0566666685 -0.0116666667 0
0.0533333346 -0.0116666667 0
0.0500000007 -0.0116666667 0
0.0466666669 -0.0116666667 0
0.043333333 -0.0116666667 0
0.0399999991 -0.0116666667 0
0.0366666652 -0.0116666667 0
0.0333333351 -0.0116666667 0
0.0299999993 -0.0116666667 0
0.0266666673 -0.0116666667 0
0.0233333334 -0.0116666667 0
0.0199999996 -0.0116666667 0
0.0166666675 -0.0116666667 0
0.0133333337 -0.0116666667 0
0.00999999978 -0.0116666667 0
0.00666666683 -0.0116666667 0
0.00333333341 -0.0116666667 0
0 -0.0116666667 0
0.100000001 -0.0149999997 0
0.0966666639 -0.0149999997 0
0.0933333337 -0.0149999997 0
0.0900000036 -0.0149999997 0
0.086666666 -0.0149999997 0
0.0833333358 -0.0149999997 0
0.0799999982 -0.0149999997 0
0.0766666681 -0.0149999997 0
0.0733333305 -0.0149999997 0
0.0700000003 -0.0149999997 0
0.0666666701 -0.0149999997 0
0.0633333325 -0.0149999997 0
0.0599999987 -0.0149999997 0
0.0566666685 -0.0149999997 0
0.0533333346 -0.0149999997 0
0.0500000007 -0.0149999997 0
0.0466666669 -0.0149999997 0
0.043333333 -0.0149999997 0
0.0399999991 -0.0149999997 0
0.0366666652 -0.0149999997 0
0.0333333351 -0.0149999997 0
0.0299999993 -0.0149999997 0
0.0266666673 -0.0149999997 0
0.0233333334 -0.0149999997 0
0.0199999996 -0.0149999997 0
0.0166666675 -0.0149999997 0
0.0133333337 -0.0149999997 0
0.00999999978 -0.0149999997 0
0.00666666683 -0.0149999997 0
0.00333333341 -0.0149999997 0
0 -0.0149999997 0
0.100000001 -0.0183333326 0
0.0966666639 -0.0183333326 0
0.0933333337 -0.0183333326 0
0.0900000036 -0.0183333326 0
0.086666666 -0.0183333326 0
0.0833333358 -0.0183333326 0
0.0799999982 -0.0183333326 0
0.0766666681 -0.0183333326 0
0.0733333305 -0.0183333326 0
0.0700000003 -0.0183333326 0
0.0666666701 -0.0183333326 0
0.0633333325 -0.0183333326 0
0.0599999987 -0.0183333326 0
0.0566666685 -0.0183333326 0
0.0533333346 -0.0183333326 0
0.0500000007 -0.0183333326 0
0.0466666669 -0.0183333326 0
0.043333333 -0.0183333326 0
0.0399999991 -0.0183333326 0
0.0366666652 -0.0183333326 0
0.0333333351 -0.0183333326 0
0.0299999993 -0.0183333326 0
0.0266666673 -0.0183333326 0
0.0233333334 -0.0183333326 0
0.0199999996 -0.0183333326 0
0.0166666675 -0.0183333326 0
0.0133333337 -0.0183333326 0
0.00999999978 -0.0183333326 0
0.00666666683 -0.0183333326 0
0.00333333341 -0.0183333326 0
0 -0.0183333326 0
0.100000001 -0.0216666665 0
0.0966666639 -0.0216666665 0
0.0933333337 -0.0216666665 0
0.0900000036 -0.0216666665 0
0.086666666 -0.0216666665 0
0.0833333358 -0.0216666665 0
0.0799999982 -0.0216666665 0
0.0766666681 -0.0216666665 0
0.0733333305 -0.0216666665 0
0.0700000003 -0.0216666665 0
0.0666666701 -0.0216666665 0
0.0633333325 -0.0216666665 0
0.0599999987 -0.0216666665 0
0.0566666685 -0.0216666665 0
0.0533333346 -0.0216666665 0
0.0500000007 -0.0216666665 0
0.0466666669 -0.0216666665 0
0.043333333 -0.0216666665 0
0.0399999991 -0.0216666665 0
0.0366666652 -0.0216666665 0
0.0333333351 -0.0216666665 0
0.0299999993 -0.0216666665 0
0.0266666673 -0.0216666665 0
0.0233333334 -0.0216666665 0
0.0199999996 -0.0216666665 0
0.0166666675 -0.0216666665 0
0.0133333337 -0.0216666665 0
0.00999999978 -0.0216666665 0
0.00666666683 -0.0216666665 0
0.00333333341 -0.0216666665 0
0 -0.0216666665 0
0.100000001 -0.0250000004 0
0.0966666639 -0.0250000004 0
0.0933333337 -0.0250000004 0
0.0900000036 -0.0250000004 0
0.086666666 -0.0250000004 0
0.0833333358 -0.0250000004 0
0.0799999982 -0.0250000004 0
0.0766666681 -0.0250000004 0
0.0733333305 -0.0250000004 0
0.0700000003 -0.0250000004 0
0.0666666701 -0.0250000004 0
0.0633333325 -0.0250000004 0
0.0599999987 -0.0250000004 0
0.0566666685 -0.0250000004 0
0.0533333346 -0.0250000004 0
0.0500000007 -0.0250000004 0
0.0466666669 -0.0250000004 0
0.043333333 -0.0250000004 0
0.0399999991 -0.0250000004 0
0.0366666652 -0.0250000004 0
0.0333333351 -0.0250000004 0
0.0299999993 -0.0250000004 0
0.0266666673 -0.0250000004 0
0.0233333334 -0.0250000004 0
0.0199999996 -0.0250000004 0
0.0166666675 -0.0250000004 0
0.0133333337 -0.0250000004 0
0.00999999978 -0.0250000004 0
0.00666666683 -0.0250000004 0
0.00333333341 -0.0250000004 0
0 -0.0250000004 0
0.100000001 -0.0283333343 0
0.0966666639 -0.0283333343 0
0.0933333337 -0.0283333343 0
0.0900000036 -0.0283333343 0
0.086666666 -0.0283333343 0
0.0833333358 -0.0283333343 0
0.0799999982 -0.0283333343 0
0.0766666681 -0.0283333343 0
0.0733333305 -0.0283333343 0
0.0700000003 -0.0283333343 0
0.0666666701 -0.0283333343 0
0.0633333325 -0.0283333343 0
0.0599999987 -0.0283333343 0
0.0566666685 -0.0283333343 0
0.0533333346 -0.0283333343 0
0.0500000007 -0.0283333343 0
0.0466666669 -0.0283333343 0
0.043333333 -0.0283333343 0
0.0399999991 -0.0283333343 0
0.0366666652 -0.0283333343 0
0.0333333351 -0.0283333343 0
0.0299999993 -0.0283333343 0
0.0266666673 -0.0283333343 0
0.0233333334 -0.0283333343 0
0.0199999996 -0.0283333343 0
0.0166666675 -0.0283333343 0
0.0133333337 -0.0283333343 0
0.00999999978 -0.0283333343 0
0.00666666683 -0.0283333343 0
0.00333333341 -0.0283333343 0
0 -0.0283333343 0
0.100000001 -0.0316666663 0
[...]
POINT_DATA 961
SCALARS Temp float 1
LOOKUP_TABLE default
318.6312671484086
287.1156447086848
262.9301560793266
245.39963606672805
233.41710065468862
225.69789888491792
221.00954221151463
218.3219527157942
216.86539224589364
216.11752602584
215.75286859510337
215.58359710405315
215.5086479121939
215.47706350619575
215.46480363519876
215.4616447634725
215.46480362767682
215.4770634840805
215.508647910769
215.58359710108783
215.7528680125312
216.11752563190277
216.86539196518038
218.32194983281028
221.00954061819857
225.69788560838407
233.41708863817516
245.39960020524617
262.93012076801506
287.11563147412244
318.6312066423436
287.115732832817
254.472882694292
229.4217558689486
211.26323345616998
198.85096120404347
190.8545540659334
185.99757977676393
183.2131707060633
181.7040450717527
180.9291392308377
180.55127206393072
180.3758567509631
180.29818192384505
180.2654467284286
180.25273941201104
180.24946512644473
180.252739404153
180.2654467053171
180.29818192185385
180.37585674655656
180.5512714569033
180.92913881460484
181.70404476213372
183.21316767666238
185.9975780323978
190.8545401078522
198.8509483116953
211.2631952404332
229.42171702902706
254.47285144796237
287.1156351204024
262.9302421697843
229.42176134970066
203.70469777974637
185.06189482223596
172.31725561658965
164.10570597830375
159.1173495515578
156.25717516196366
154.70672501617798
153.91045897978145
153.5221047843775
153.34178741879202
153.2619269375864
153.2282644517895
153.21519503784026
153.21182709454996
153.21519502958435
153.2282644274857
153.2619269340919
153.3417874105277
153.52210415116235
153.91045852976828
154.70672464645364
156.25717193422543
159.11734750791047
164.10569110572382
172.31724123044089
185.06185312272092
203.7046516878208
229.42171710153167
262.93012404359644
245.3997282569481
211.2632467691648
185.0619041151719
166.06581054571535
153.07775266769235
144.7079096571071
139.62238255791374
136.70585125212435
135.12447474781288
134.3121212105441
133.91581694827548
133.73175880556326
133.65021945916487
133.61584016307887
133.60248927023827
133.5990482596045
133.6024892615473
133.61584013746733
133.6502194534852
133.73175879172396
133.91581628871464
134.31212071985556
135.12447429867012
136.70584780200028
139.6223801377839
144.70789380316856
153.07773661673477
166.06576529929615
185.06185223135947
211.26319437327288
245.3996004893866
233.41722467642924
198.85100575730908
172.31729684319728
153.07778519099614
139.9211960657695
131.4411310648342
126.28750432262538
123.33119624300022
121.72782636904518
120.90394148544553
120.50189233312625
120.31510879022868
120.23233627667888
120.19742631011272
120.18386558352472
120.1803698615947
120.18386557439639
120.19742628318915
120.23233626848963
120.31510877005955
120.50189164904937
120.90394095310283
121.72782583616413
123.33119257946299
126.28750152956653
131.44111433393684
139.92117856370464
153.07773723016163
172.31724107491604
198.8509487076666
233.4170914812863
225.69803152126704
190.85460282877628
164.10575102085488
144.70794605420204
131.44113479523256
122.88849643030889
117.68968799518564
114.70676783424607
113.08855141407862
112.25680910420783
111.85080752684503
111.66213057239497
111.5784929911383
111.54320725605214
111.52949671632315
111.52596172676935
111.52949670678959
111.54320722792079
111.57849298046992
111.66213054607043
111.8508068217775
112.25680853442087
113.08855080583587
114.70676399135135
117.68968489044758
122.88847902335557
131.44111623373044
144.7078962810216
164.10569287984532
190.85454312976236
225.69789528056396
221.00968610659132
185.997639995495
159.11740673497982
139.62243162722757
126.28752091116912
117.68970101757498
112.46251977371173
109.46272818052653
107.83500282911227
106.99817376319321
106.58958502549524
106.39965471394325
106.3154380541654
106.27989804544059
106.26608516291132
106.26252318555447
106.26608515303076
106.27989801628482
106.31543804131749
106.3996546823094
106.58958430389497
106.9981731633076
107.8350021611222
109.462724203309
112.46251644091409
117.68968314841543
126.28750166166515
139.62238074859536
159.11734722345494
185.99757883498188
221.0095481906753
218.32208986209446
183.21322859377167
156.25723162792113
136.70590018692653
123.33121285270248
114.7067809735733
109.46272829061665
106.45279841763383
104.81929404261845
103.97933646602658
103.5691368079572
103.3784162236596
103.29382982740921
103.25812548257473
103.24424574639121
103.24066601988396
103.24424573623499
103.25812545261564
103.2938298128245
103.37841618788865
103.56913607435064
103.97933584422854
104.81929333209074
106.45279434946221
109.46272480808094
114.70676281718224
123.33119319404148
136.7058486788007
156.25717136522638
183.21316665712018
218.32195105654858
216.86552512903765
181.7041036600853
154.7067837335586
135.12452644498046
121.72784593099843
113.08856762085608
107.8350060401066
104.81929716574544
103.18245815385445
102.34067186606974
101.92951784297256
101.73832260129622
101.65351105094159
101.61770528615405
101.60378380432756
101.60019291205793
101.60378379396757
101.61770525561005
101.65351103508912
101.73832256257847
101.92951710129837
102.34067122967896
103.1824574157507
104.81929304119546
107.8350024677097
113.08854929958139
121.7278260458931
135.1244745993616
154.7067230794415
181.70404132853972
216.86538587009483
216.11765898631106
180.92919783678957
153.9105172353415
134.312172449481
120.90396062253058
112.25682492675551
106.99817659893364
103.97933922113728
102.34067149545496
101.49786847252527
101.08617617424781
100.89470924869893
100.80976689927388
100.77390136110321
100.75995496265206
100.75635735249443
100.75995495215166
100.77390133016239
100.80976688256679
100.89470920804665
101.08617542753693
101.49786782717031
102.34067074089417
103.97933506425939
106.99817297659882
112.25680651710319
120.90394061974374
134.3121204326647
153.91045638709642
180.9291353131029
216.11751950621252
215.7530124482048
180.5513324189034
153.52216348877704
133.91586839758043
120.50191163832078
111.85082351745717
106.58958802415079
103.56913972483328
101.92951763047162
101.08617633134313
100.67419474372214
100.48257952252943
100.39756464899726
100.36166545799628
100.34770484207024
100.34410336623236
100.34770483147912
100.36166542680414
100.39756463175507
100.48257948069887
100.67419399407697
101.08617568087168
101.92951686678843
103.5691355506609
106.58958437587536
111.8508050632462
120.50189157776225
133.91581629831344
153.52210254876704
180.5512698058407
215.7528728649226
215.58374226065854
180.37591793564775
153.34184688428618
133.73181097534436
120.31512877478042
111.66214721028904
106.39965833555861
103.37841975082337
101.73832299131868
100.8947100051194
100.48258012067564
100.29088764797545
100.20583437309912
100.16991707702643
100.15594870474692
100.15234510147654
100.15594869410106
100.16991704568483
100.20583435554423
100.29088760547539
100.4825793694285
100.89470935191764
101.73832222290488
103.37841556796147
106.39965467460094
111.66212873483191
120.31510868731468
133.7317588382693
153.34178590286567
180.3758552828107
215.58360263131692
215.50878287192992
180.29824206492347
153.26198656395732
133.65027195164157
120.2323564996826
111.57850978661808
106.31544178056069
103.29383343109345
101.6535115027511
100.80976771078488
100.39756529934404
100.20583442425345
100.1207617400322
100.0848351433527
100.07086272971381
100.06725800811964
100.07086271903674
100.0848351119278
100.12076172230637
100.2058343813973
100.39756454727494
100.80976705621548
101.65351073203138
103.29382924411318
106.31543811374215
111.57849130154804
120.23233640029532
133.65021979802958
153.26192556467765
180.29817939514248
215.5086432229138
215.47719806833487
180.26550682977827
153.22832485798423
133.6158931630318
120.19744681402238
111.54322419370806
106.27990183856289
103.25812911505234
101.61770574828884
100.77390217458323
100.3616661066885
100.16991712506912
100.08483513982178
100.04890401514973
100.0349296066746
100.03132432833
100.03492959598097
100.0489039836817
100.08483512200903
100.1699170820368
100.36166535422525
100.77390151937314
101.61770497651615
103.25812492623677
106.27989816919269
111.54320570452518
120.19742670963008
133.61584100254876
153.2282638513769
180.2654441531265
215.4770584113071
215.46494299399768
180.25280394565007
153.21525704744232
133.60254299451597
120.18388643363996
111.52951382928606
106.26608905035013
103.24424943501961
101.60378430486611
100.75995580663448
100.34770551787099
100.15594877851142
100.07086275141363
100.03492963177584
100.02095433386812
100.01734880545675
100.02095432316686
100.03492960028808
100.07086273356173
100.15594873540181
100.34770476523957
100.75995515115746
101.60378353266476
103.24424524547166
106.26608537998376
111.52949533851687
120.18386632735165
133.60249083144635
153.2151960381106
180.25274126647633
215.4648033340022
215.461807008331
180.24953409117302
153.21189059651292
133.59910254972596
120.18039095962328
111.52597895757746
106.26252713291622
103.24066974195006
101.60019343395166
100.75635821247094
100.34410405572248
100.15234518797797
100.06725804219118
100.03132436567765
100.0173488176695
100.01374321862555
100.01734880696607
100.03132433418439
100.06725802432909
100.15234514484895
100.34410330305009
100.75635755693261
101.60019266165662
103.24066555224468
106.26252346234764
111.5259604664827
120.18037085296525
133.59905038614298
153.21182958666216
180.2494714115569
215.46166734775454
215.46496601450414
180.25280850293623
153.2152586376376
133.6025436224779
120.18388671417249
111.52951396000167
106.26608911224628
103.24424946463103
101.60378431945914
100.75995581439966
100.34770552262583
100.15594878198398
100.0708627543597
100.03492963451444
100.0209543365305
100.01734880810008
100.02095432582921
100.03492960302707
100.07086273651005
100.15594873888135
100.34770477001183
100.75995515896098
101.60378354733298
103.24424527521643
106.26608544209728
111.52949546955811
120.1838666083347
133.60249145998313
153.21519762898433
180.25274582450805
215.4648263552308
215.47720331947951
180.26551168955987
153.22832677863954
133.61589408467458
120.19744726144695
111.54322441414094
106.27990194731348
103.25812916928572
101.6177057764699
100.77390219068937
100.36166611739358
100.16991713344859
100.08483514723858
100.0489040221846
100.03492961356858
100.03132433518866
100.03492960287451
100.04890399071672
100.08483512942915
100.16991709042968
100.36166536496853
100.77390153556881
101.6177050048814
103.25812498081049
106.27989827851512
111.5432059258366
120.19742715829409
133.61584192579846
153.22826577394986
180.2654490150108
215.47706366455972
215.50878348930527
180.29824289781592
153.26198798793962
133.6502728070625
120.23235697928384
111.57851004401128
106.31544191740353
103.29383350531536
101.65351154577542
100.80976773891436
100.39756532066623
100.20583444259842
100.1207617571307
100.08483515995268
100.07086274612868
100.06725802448734
100.07086273544928
100.08483512852447
100.12076173940481
100.20583439975778
100.3975645686568
100.80976708450532
101.65351077541492
103.29382931904036
106.31543825182645
111.57849156091957
120.23233688276838
133.65022065725688
153.26192699327245
180.29818023314044
215.50864384543922
215.58373358437186
180.37591879248288
153.3418477387878
133.73181167178817
120.31512921719619
111.6621474769741
106.39965849546601
103.37841985112537
101.73832306042796
100.89471005882818
100.48258016718366
100.29088769128543
100.20583441505647
100.16991711843939
100.15594874595635
100.15234514263256
100.15594873530334
100.16991708708424
100.20583439748603
100.29088764878543
100.48257941600053
100.89470940586264
101.73832229262496
103.37841566957577
106.39965483696984
111.66212900563337
120.31510913592948
133.73175954315934
153.3417867678011
180.37585615132446
215.58359396686203
215.75302285542438
180.55133370271722
153.5221645309962
133.91586914634368
120.50191221193919
111.85082395977348
106.58958838007355
103.5691400295122
101.92951790730953
101.08617659413697
100.67419499987872
100.4825797757281
100.39756490094672
100.36166570944474
100.34770509333104
100.34410361744098
100.34770508272233
100.36166567821418
100.39756488364483
100.48257973383343
100.67419425023355
101.08617594391113
101.92951714449943
103.5691358575121
106.58958473626296
111.85080551352594
120.50189216395444
133.9158170648136
153.52210361342904
180.55127111514662
215.7528832980587
216.11766124217763
180.92919958380975
153.91051774199354
134.31217273266054
120.90396075676539
112.25682494910129
106.99817654557647
103.97933912246714
102.34067137218186
101.49786833691385
101.08617603285145
100.89470910474556
100.80976675424814
100.77390121564852
100.7599548170345
100.75635720682492
100.75995480649566
100.77390118461808
100.80976673738051
100.89470906385718
101.08617528589504
101.49786769155887
102.34067061850526
103.97933496862092
106.99817293047485
112.25680655359947
120.90394077779867
134.3121207510066
153.91045693963682
180.92913711319756
216.11752181638548
216.86552592321897
181.7041045322059
154.7067851058143
135.12452779398805
121.72784715445955
113.08856874452528
107.83500710233012
104.81929819500715
103.18245916706421
102.34067287206203
101.92951884594339
101.73832360308397
101.65351205229399
101.61770628735312
101.60378480546898
101.60019391316473
101.60378479503386
101.61770625662471
101.65351203608215
101.73832356375527
101.92951810339618
102.34067223478712
103.18245842896043
104.81929407345429
107.83500353982355
113.08855044577018
121.72782731097725
135.12447601379893
154.7067245407166
181.70404230614272
216.86538677308613
218.32208400871693
183.21322736197314
156.25723168522333
136.70590002830667
123.33121248979755
114.70678049166328
109.4627277534719
106.45279785808349
104.81929347513686
103.97933589621262
103.5691362376763
103.3784156534029
103.29382925724171
103.25812491246347
103.24424517629305
103.24066544975298
103.24424516600334
103.25812488216394
103.29382924195153
103.37841561631951
103.5691355018974
103.97933527138254
104.81929276161185
106.45279378991164
109.46272428051931
114.70676236562818
123.33119289669453
136.70584863341003
156.25717158604587
183.21316562574629
218.32194541225337
221.00968494791604
185.99764727256203
159.11741197515036
139.62243633171425
126.28752541205624
117.68970548811157
112.46252426775578
109.46273270490265
107.83500737634519
106.99817832450674
106.5895895944865
106.39965928676038
106.31544262875123
106.27990262078269
106.26608973852805
106.2625277611834
106.26608972843006
106.27990259105513
106.31544261466179
106.39965925266496
106.58958886842107
106.99817771738769
107.83500669846448
109.46272871810162
112.4625209349579
117.68968764809316
126.2875062508892
139.62238563222436
159.1173527473284
185.99758647788917
221.00954741987738
225.69806346124273
190.85460756517355
164.10575334305287
144.70794755780165
131.4411362522656
122.88849800685111
117.68968969402505
114.70676961917817
113.08855325067714
112.25681096873124
111.85080940528273
111.66213245730322
111.57849487887229
111.54320914493827
111.52949860561142
111.52596361607225
111.52949859575196
111.54320911592805
111.57849486622543
111.6621324268618
111.85080869225139
112.25681038479334
113.08855261991448
114.70676574592703
117.68968656014498
122.88848059989718
131.44111777700115
144.70789803275025
164.1056956649468
190.8545485132864
225.69792792534363
233.41721477371746
198.85100032590512
172.3172892919235
153.07777784873466
139.92118920110346
131.44112460092134
126.28749812288537
123.33119019875369
121.72782040874516
120.9039355672843
120.50188643478025
120.31510290065617
120.23233039077364
120.19742042564229
120.18385969953297
120.18036397760227
120.18385968995398
120.197420397479
120.23233037971217
120.31510287428767
120.5018857381291
120.90393501112094
121.72781983424022
123.3311864696572
126.28749524148823
131.44110778378405
139.9211716990362
153.0777301500163
172.31723421646853
198.85094440982598
233.4170828602189
245.3997230724736
211.26324574889074
185.06190703237098
166.06581602034043
153.07775975649372
144.70791770999344
139.6223911693557
136.70586016978822
135.12448382413754
134.31213036457814
133.91582613836226
133.7317680115313
133.65022867178536
133.61584937833135
133.6024984864056
133.59905747584975
133.60249847713888
133.61584935111145
133.6502286622979
133.7317679892449
133.91582546106378
134.31212983872618
135.1244833095639
136.70585660643306
139.6223885700817
144.70790160792347
153.07774344341527
166.06577077392174
185.0618560591979
211.2631953133659
245.39959782252336
262.930209143084
229.42173553056813
203.70468059351035
185.06188180530026
172.3172447408793
164.10569631621271
159.11734055545367
156.25716651605978
154.70671654519595
153.91045059168312
153.52209643354973
153.34177908389043
153.26191860915569
153.22825612583867
153.21518671271363
153.2118187694489
153.21518670377785
153.22825609961555
153.26191860104714
153.3417790651913
153.52209577789102
153.91045009578056
154.70671608645128
156.2571631248021
159.1173382281004
164.10568098072497
172.31722966189537
185.06183919514288
203.70463450157922
229.42169546365864
262.9300960294516
287.11570350916054
254.47288971574235
229.42177329560286
211.26325544122503
198.85098614968834
190.854580737596
185.9976074136424
183.21319885542047
181.70407347970243
180.9291677628002
180.55130065248517
180.37588536413222
180.2982105472295
180.2654753558339
180.25276804082344
180.24949375541618
180.25276803222457
180.26547533061742
180.2982105401312
180.37588534804257
180.5513000199681
180.92916729349204
181.7040730646003
183.21319562559114
185.9976053034295
190.85456613239313
198.85097212376473
211.2632152651177
229.42173027440157
254.47285846939343
287.1156329903876
318.6312434604755
287.11563608955976
262.9301460956892
245.39963014674657
233.4170973042276
225.69789706664153
221.00954123870451
218.32195218506445
216.86539193439663
216.11752581759782
215.75286843310087
215.583596961769
215.50864777792313
215.47706337500588
215.46480350504726
215.46164463338445
215.46480349678234
215.4770633507748
215.5086477713488
215.58359694697822
215.75286782460427
216.11752536935026
216.86539154487366
218.32194909300256
221.00953925751003
225.69788308527382
233.41708400605657
245.39959176765703
262.93010577180286
287.1155956613604
318.63118295443735
