# vtk DataFile Version 2.0
Unstructured Grid Example
ASCII
DATASET UNSTRUCTURED_GRID

POINTS 961 float
0.100000001 0.00499999989 0
0.0966666639 0.00499999989 0
0.0933333337 0.00499999989 0
0.0900000036 0.00499999989 0
0.086666666 0.00499999989 0
0.0833333358 0.00499999989 0
0.0799999982 0.00499999989 0
0.0766666681 0.00499999989 0
0.0733333305 0.00499999989 0
0.0700000003 0.00499999989 0
0.0666666701 0.00499999989 0
0.0633333325 0.00499999989 0
0.0599999987 0.00499999989 0
0.0566666685 0.00499999989 0
0.0533333346 0.00499999989 0
0.0500000007 0.00499999989 0
0.0466666669 0.00499999989 0
0.043333333 0.00499999989 0
0.0399999991 0.00499999989 0
0.0366666652 0.00499999989 0
0.0333333351 0.00499999989 0
0.0299999993 0.00499999989 0
0.0266666673 0.00499999989 0
0.0233333334 0.00499999989 0
0.0199999996 0.00499999989 0
0.0166666675 0.00499999989 0
0.0133333337 0.00499999989 0
0.00999999978 0.00499999989 0
0.00666666683 0.00499999989 0
0.00333333341 0.00499999989 0
0 0.00499999989 0
0.100000001 0.00166666671 0
0.0966666639 0.00166666671 0
0.0933333337 0.00166666671 0
0.0900000036 0.00166666671 0
0.086666666 0.00166666671 0
0.0833333358 0.00166666671 0
0.0799999982 0.00166666671 0
0.0766666681 0.00166666671 0
0.0733333305 0.00166666671 0
0.0700000003 0.00166666671 0
0.0666666701 0.00166666671 0
0.0633333325 0.00166666671 0
0.0599999987 0.00166666671 0
0.0566666685 0.00166666671 0
0.0533333346 0.00166666671 0
0.0500000007 0.00166666671 0
0.0466666669 0.00166666671 0
0.043333333 0.00166666671 0
0.0399999991 0.00166666671 0
0.0366666652 0.00166666671 0
0.0333333351 0.00166666671 0
0.0299999993 0.00166666671 0
0.0266666673 0.00166666671 0
0.0233333334 0.00166666671 0
0.0199999996 0.00166666671 0
0.0166666675 0.00166666671 0
0.0133333337 0.00166666671 0
0.00999999978 0.00166666671 0
0.00666666683 0.00166666671 0
0.00333333341 0.00166666671 0
0 0.00166666671 0
0.100000001 -0.00166666671 0
0.0966666639 -0.00166666671 0
0.0933333337 -0.00166666671 0
0.0900000036 -0.00166666671 0
0.086666666 -0.00166666671 0
0.0833333358 -0.00166666671 0
0.0799999982 -0.00166666671 0
0.0766666681 -0.00166666671 0
0.0733333305 -0.00166666671 0
0.0700000003 -0.00166666671 0
0.0666666701 -0.00166666671 0
0.0633333325 -0.00166666671 0
0.0599999987 -0.00166666671 0
0.0566666685 -0.00166666671 0
0.0533333346 -0.00166666671 0
0.0500000007 -0.00166666671 0
0.0466666669 -0.00166666671 0
0.043333333 -0.00166666671 0
0.0399999991 -0.00166666671 0
0.0366666652 -0.00166666671 0
0.0333333351 -0.00166666671 0
0.0299999993 -0.00166666671 0
0.0266666673 -0.00166666671 0
0.0233333334 -0.00166666671 0
0.0199999996 -0.00166666671 0
0.0166666675 -0.00166666671 0
0.0133333337 -0.00166666671 0
0.00999999978 -0.00166666671 0
0.00666666683 -0.00166666671 0
0.00333333341 -0.00166666671 0
0 -0.00166666671 0
0.100000001 -0.00499999989 0
0.0966666639 -0.00499999989 0
0.0933333337 -0.00499999989 0
0.0900000036 -0.00499999989 0
0.086666666 -0.00499999989 0
0.0833333358 -0.00499999989 0
0.0799999982 -0.00499999989 0
0.0766666681 -0.00499999989 0
0.0733333305 -0.00499999989 0
0.0700000003 -0.00499999989 0
0.0666666701 -0.00499999989 0
0.0633333325 -0.00499999989 0
0.0599999987 -0.00499999989 0
0.0566666685 -0.00499999989 0
0.0533333346 -0.00499999989 0
0.0500000007 -0.00499999989 0
0.0466666669 -0.00499999989 0
0.043333333 -0.00499999989 0
0.0399999991 -0.00499999989 0
0.0366666652 -0.00499999989 0
0.0333333351 -0.00499999989 0
0.0299999993 -0.00499999989 0
0.0266666673 -0.00499999989 0
0.0233333334 -0.00499999989 0
0.0199999996 -0.00499999989 0
0.0166666675 -0.00499999989 0
0.0133333337 -0.00499999989 0
0.00999999978 -0.00499999989 0
0.00666666683 -0.00499999989 0
0.00333333341 -0.00499999989 0
0 -0.00499999989 0
0.100000001 -0.00833333377 0
0.0966666639 -0.00833333377 0
0.0933333337 -0.00833333377 0
0.0900000036 -0.00833333377 0
0.086666666 -0.00833333377 0
0.0833333358 -0.00833333377 0
0.0799999982 -0.00833333377 0
0.0766666681 -0.00833333377 0
0.0733333305 -0.00833333377 0
0.0700000003 -0.00833333377 0
0.0666666701 -0.00833333377 0
0.0633333325 -0.00833333377 0
0.0599999987 -0.00833333377 0
0.0566666685 -0.00833333377 0
0.0533333346 -0.00833333377 0
0.0500000007 -0.00833333377 0
0.0466666669 -0.00833333377 0
0.043333333 -0.00833333377 0
0.0399999991 -0.00833333377 0
0.0366666652 -0.00833333377 0
0.0333333351 -0.00833333377 0
0.0299999993 -0.00833333377 0
0.0266666673 -0.00833333377 0
0.0233333334 -0.00833333377 0
0.0199999996 -0.00833333377 0
0.0166666675 -0.00833333377 0
0.0133333337 -0.00833333377 0
0.00999999978 -0.00833333377 0
0.00666666683 -0.00833333377 0
0.00333333341 -0.00833333377 0
0 -0.00833333377 0
0.100000001 -0.0116666667 0
0.0966666639 -0.0116666667 0
0.0933333337 -0.0116666667 0
0.0900000036 -0.0116666667 0
0.086666666 -0.0116666667 0
0.0833333358 -0.0116666667 0
0.0799999982 -0.0116666667 0
0.0766666681 -0.0116666667 0
0.0733333305 -0.0116666667 0
0.0700000003 -0.0116666667 0
0.0666666701 -0.0116666667 0
0.0633333325 -0.0116666667 0
0.0599999987 -0.0116666667 0
0.0566666685 -0.0116666667 0
0.0533333346 -0.0116666667 0
0.0500000007 -0.0116666667 0
0.0466666669 -0.0116666667 0
0.043333333 -0.0116666667 0
0.0399999991 -0.0116666667 0
0.0366666652 -0.0116666667 0
0.0333333351 -0.0116666667 0
0.0299999993 -0.0116666667 0
0.0266666673 -0.0116666667 0
0.0233333334 -0.0116666667 0
0.0199999996 -0.0116666667 0
0.0166666675 -0.0116666667 0
0.0133333337 -0.0116666667 0
0.00999999978 -0.0116666667 0
0.00666666683 -0.0116666667 0
0.00333333341 -0.0116666667 0
0 -0.0116666667 0
0.100000001 -0.0149999997 0
0.0966666639 -0.0149999997 0
0.0933333337 -0.0149999997 0
0.0900000036 -0.0149999997 0
0.086666666 -0.0149999997 0
0.0833333358 -0.0149999997 0
0.0799999982 -0.0149999997 0
0.0766666681 -0.0149999997 0
0.0733333305 -0.0149999997 0
0.0700000003 -0.0149999997 0
0.0666666701 -0.0149999997 0
0.0633333325 -0.0149999997 0
0.0599999987 -0.0149999997 0
0.0566666685 -0.0149999997 0
0.0533333346 -0.0149999997 0
0.0500000007 -0.0149999997 0
0.0466666669 -0.0149999997 0
0.043333333 -0.0149999997 0
0.0399999991 -0.0149999997 0
0.0366666652 -0.0149999997 0
0.0333333351 -0.0149999997 0
0.0299999993 -0.0149999997 0
0.0266666673 -0.0149999997 0
0.0233333334 -0.0149999997 0
0.0199999996 -0.0149999997 0
0.0166666675 -0.0149999997 0
0.0133333337 -0.0149999997 0
0.00999999978 -0.0149999997 0
0.00666666683 -0.0149999997 0
0.00333333341 -0.0149999997 0
0 -0.0149999997 0
0.100000001 -0.0183333326 0
0.0966666639 -0.0183333326 0
0.0933333337 -0.0183333326 0
0.0900000036 -0.0183333326 0
0.086666666 -0.0183333326 0
0.0833333358 -0.0183333326 0
0.0799999982 -0.0183333326 0
0.0766666681 -0.0183333326 0
0.0733333305 -0.0183333326 0
0.0700000003 -0.0183333326 0
0.0666666701 -0.0183333326 0
0.0633333325 -0.0183333326 0
0.0599999987 -0.0183333326 0
0.0566666685 -0.0183333326 0
0.0533333346 -0.0183333326 0
0.0500000007 -0.0183333326 0
0.0466666669 -0.0183333326 0
0.043333333 -0.0183333326 0
0.0399999991 -0.0183333326 0
0.0366666652 -0.0183333326 0
0.0333333351 -0.0183333326 0
0.0299999993 -0.0183333326 0
0.0266666673 -0.0183333326 0
0.0233333334 -0.0183333326 0
0.0199999996 -0.0183333326 0
0.0166666675 -0.0183333326 0
0.0133333337 -0.0183333326 0
0.00999999978 -0.0183333326 0
0.00666666683 -0.0183333326 0
0.00333333341 -0.0183333326 0
0 -0.0183333326 0
0.100000001 -0.0216666665 0
0.0966666639 -0.0216666665 0
0.0933333337 -0.0216666665 0
0.0900000036 -0.0216666665 0
0.086666666 -0.0216666665 0
0.0833333358 -0.0216666665 0
0.0799999982 -0.0216666665 0
0.0766666681 -0.0216666665 0
0.0733333305 -0.0216666665 0
0.0700000003 -0.0216666665 0
0.0666666701 -0.0216666665 0
0.0633333325 -0.0216666665 0
0.0599999987 -0.0216666665 0
0.0566666685 -0.0216666665 0
0.0533333346 -0.0216666665 0
0.0500000007 -0.0216666665 0
0.0466666669 -0.0216666665 0
0.043333333 -0.0216666665 0
0.0399999991 -0.0216666665 0
0.0366666652 -0.0216666665 0
0.0333333351 -0.0216666665 0
0.0299999993 -0.0216666665 0
0.0266666673 -0.0216666665 0
0.0233333334 -0.0216666665 0
0.0199999996 -0.0216666665 0
0.0166666675 -0.0216666665 0
0.0133333337 -0.0216666665 0
0.00999999978 -0.0216666665 0
0.00666666683 -0.0216666665 0
0.00333333341 -0.0216666665 0
0 -0.0216666665 0
0.100000001 -0.0250000004 0
0.0966666639 -0.0250000004 0
0.0933333337 -0.0250000004 0
0.0900000036 -0.0250000004 0
0.086666666 -0.0250000004 0
0.0833333358 -0.0250000004 0
0.0799999982 -0.0250000004 0
0.0766666681 -0.0250000004 0
0.0733333305 -0.0250000004 0
0.0700000003 -0.0250000004 0
0.0666666701 -0.0250000004 0
0.0633333325 -0.0250000004 0
0.0599999987 -0.0250000004 0
0.0566666685 -0.0250000004 0
0.0533333346 -0.0250000004 0
0.0500000007 -0.0250000004 0
0.0466666669 -0.0250000004 0
0.043333333 -0.0250000004 0
0.0399999991 -0.0250000004 0
0.0366666652 -0.0250000004 0
0.0333333351 -0.0250000004 0
0.0299999993 -0.0250000004 0
0.0266666673 -0.0250000004 0
0.0233333334 -0.0250000004 0
0.0199999996 -0.0250000004 0
0.0166666675 -0.0250000004 0
0.0133333337 -0.0250000004 0
0.00999999978 -0.0250000004 0
0.00666666683 -0.0250000004 0
0.00333333341 -0.0250000004 0
0 -0.0250000004 0
0.100000001 -0.0283333343 0
0.0966666639 -0.0283333343 0
0.0933333337 -0.0283333343 0
0.0900000036 -0.0283333343 0
0.086666666 -0.0283333343 0
0.0833333358 -0.0283333343 0
0.0799999982 -0.0283333343 0
0.0766666681 -0.0283333343 0
0.0733333305 -0.0283333343 0
0.0700000003 -0.0283333343 0
0.0666666701 -0.0283333343 0
0.0633333325 -0.0283333343 0
0.0599999987 -0.0283333343 0
0.0566666685 -0.0283333343 0
0.0533333346 -0.0283333343 0
0.0500000007 -0.0283333343 0
0.0466666669 -0.0283333343 0
0.043333333 -0.0283333343 0
0.0399999991 -0.0283333343 0
0.0366666652 -0.0283333343 0
0.0333333351 -0.0283333343 0
0.0299999993 -0.0283333343 0
0.0266666673 -0.0283333343 0
0.0233333334 -0.0283333343 0
0.0199999996 -0.0283333343 0
0.0166666675 -0.0283333343 0
0.0133333337 -0.0283333343 0
0.00999999978 -0.0283333343 0
0.00666666683 -0.0283333343 0
0.00333333341 -0.0283333343 0
0 -0.0283333343 0
0.100000001 -0.0316666663 0
[...]
POINT_DATA 961
SCALARS Temp float 1
LOOKUP_TABLE default
324.56353148996243
293.13872481040045
268.77570174452995
250.8740039781329
238.42688035937545
230.24306315957983
225.154355196978
222.1596235070408
220.48937557906362
219.60503658747487
219.1596457218917
218.945824879177
218.84783626164457
218.80510940795068
218.7880061155763
218.78351032870643
218.78800611475683
218.8051094056148
218.8478363286083
218.94582503557095
219.15964535690574
219.60503688244148
220.48937682323563
222.1596233224536
225.15435918495658
230.24305910966154
238.42688494385789
250.87399446727338
268.77570697845323
293.1387678365527
324.56353129541003
293.138783838582
260.58569574618446
235.34740923507297
216.80208275186322
203.90700590700766
195.42832645692326
190.15603234924134
187.0531027023352
185.32241542916478
184.40602310483334
183.94446117478182
183.7228634227833
183.62130457086022
183.57701828474745
183.5592898129556
183.55462953133193
183.55928981208731
183.57701828227147
183.6213046401277
183.72286358453906
183.9444607957673
184.40602340878473
185.32241671463038
187.05310250293502
190.15603646360455
195.4283222213561
203.9070105655262
216.80207260058654
235.3474141894522
260.58572753704556
293.13877129962407
268.77571122798463
235.34738315712738
209.42908000889344
190.38266661382707
177.13795663625848
168.42844195697197
163.01193505353774
159.8236923500323
158.04515624105247
157.10327957832334
156.62880389822894
156.40096776524427
156.29653205863744
156.25098368969543
156.2327472888737
156.22795303362528
156.23274728792762
156.25098368699528
156.29653212948895
156.40096793065285
156.62880350648248
157.10327988610356
158.0451575520933
159.82369212377114
163.01193923561644
168.42843750926087
177.1379612002192
190.3826556769883
209.42908313521866
235.34741389345888
268.77570872583203
250.87399600763692
216.8020382788729
190.38265140113847
170.96600005773644
157.46208689810015
148.58076139391665
143.0564328581958
139.80408859479553
137.98940866838623
137.0281738104565
136.54383183475736
136.31120136616784
136.2045416798452
136.15801206575708
136.1393787730388
136.13447949742107
136.1393787719952
136.15801206277763
136.20454175166753
136.31120153379263
136.54383143192177
137.02817411830796
137.98940999295777
139.80408833683202
143.05643706967308
148.58075675035906
157.4620913419978
170.96598847638666
190.38265416515986
216.80207064618253
250.87399463152545
238.42688597925707
203.90697548462802
177.13795688616494
157.46210335339507
143.77596668859695
134.77326160633933
129.1723345135254
125.87417101006406
124.03348499665651
123.05822471615534
122.56668300775908
122.33052837093665
122.2222219430124
122.17496062280077
122.15602953147535
122.15105114614845
122.15602953032818
122.1749606195266
122.22222201534998
122.33052853973356
122.56668259582199
123.05822502210339
124.03348632735653
125.87417072326497
129.17233873748867
134.77325681846617
143.7759710659647
157.4620914914214
177.13795978705812
203.90700866498355
238.426885161724
230.2430614860423
195.42828827841342
168.42843477839585
148.5807706371469
134.7732542496096
125.68922827746593
120.03664342809952
116.70735454625596
114.84886396796865
113.86392218862575
113.3673681696871
113.12873871973684
113.01926580818203
112.97148180827129
112.95233641869856
112.94730083980409
112.9523364174537
112.9714818047234
113.01926588074387
113.12873888905906
113.3673677507987
113.86392249222035
114.84886530132096
116.70735423817135
120.03664766117467
125.6892234027256
134.77325862343076
148.5807586756669
168.42843781119794
195.4283219706083
230.24306093122303
225.15435964429074
190.15600036645247
163.0119345203656
143.0564490845546
129.17233421772087
120.03665062431713
114.35100432877125
111.0016293268436
109.13154596785559
108.14024078335093
107.6403599543785
107.4000714376585
107.28980868061433
107.241667322783
107.22237416904363
107.21729894221271
107.22237416771637
107.24166731900823
107.28980875324554
107.40007160717529
107.64035953058897
108.14024108504938
109.13154730276337
111.00162900580709
114.35100857182368
120.03664570634781
129.1723386141324
143.05643708941872
163.01193765387004
190.15603437013755
225.15435923619052
222.1596242785198
187.05306681728533
159.8236879589083
139.80410099840628
125.87416682860074
116.70735787134493
111.00162541592542
107.63993489286226
105.76267280032411
104.76738556831805
104.26540006368377
104.02405016051584
103.91327639601305
103.86490130821456
103.8455105845509
103.84040902052443
103.8455105831606
103.8649013042703
103.9132764686507
104.02405033009804
104.26539963671753
104.76738586886701
105.76267413664159
107.63993456539194
111.00162966906409
116.70735293525009
125.87417125048265
139.80408899586848
159.82369116020894
187.05310100652204
222.15962395521086
220.4893774363369
185.32238061484773
158.0451530308106
137.98942233742406
124.03348209383465
114.84886861635802
109.13154338273215
105.76267414250206
103.88118236546592
102.8835219895078
102.38026714442492
102.13826923104098
102.02717960932834
101.97865831178167
101.95920591109986
101.95408758880826
101.95920590966573
101.97865830772288
102.0271796819589
102.13826940065876
102.38026671557002
102.8835222895504
103.88118370316751
105.76267381259203
109.13154764440179
114.84886367424247
124.03348653600517
137.98941033655558
158.04515627468888
185.32241491045576
220.48937716203108
219.60503694902627
184.40598671113193
157.1032747863672
137.0281858968238
123.05822020508754
113.86392523153414
108.14023658082297
104.76738529429927
102.88352036876498
101.88451218587672
101.38052717456186
101.13815157035813
101.0268753893525
100.9782666107952
100.95877688828561
100.95364835341331
100.9587768868238
100.97826660666618
101.02687546198113
101.13815174001464
101.38052674467846
101.88451248581325
102.88352170767871
104.7673849639033
108.14024084872368
113.86392028837142
123.058224661006
137.02817389966853
157.10327805538475
184.4060210651227
219.6050367022864
219.15964567485014
183.94442434255805
156.6287986760328
136.54384349759383
122.56667806547034
113.36737078691336
107.64035532296745
104.26539936353143
102.38026509648093
101.38052674816393
100.87614082959001
100.63355494917114
100.52217343004004
100.47351457462614
100.45400323080108
100.4488687352593
100.45400322932333
100.47351457045828
100.5221735026742
100.63355511887022
100.87614039919477
101.3805270481758
102.38026643632111
104.2653990333734
107.6403595949317
113.36736584429052
122.56668252976965
136.54383150367443
156.6288019590557
183.94445872714633
219.15964544301227
218.94582521773782
183.7228269828583
156.40096295617465
136.3112134583389
122.33052386381658
113.12874178173666
107.40006725416477
104.02404991279803
102.13826763695754
101.1381515994099
100.6335554052851
100.39085763270063
100.27941923281217
100.23073294728891
100.21120961169376
100.20607178451104
100.21120961020786
100.23073294310159
100.27941930545556
100.39085780243909
100.63355497465811
101.13815189954238
102.13826897742607
104.02404958301564
107.40007152854666
113.12873683988241
122.33052833282211
136.3112014666122
156.4009662465759
183.7228613827495
218.94582499359564
218.84783653286217
183.62126805775947
156.2965271788104
136.2045537032502
122.22221736580403
113.01926880181342
107.28980442841014
103.91327608061864
102.02717794759246
101.02687535115837
100.52217381903738
100.27941916558822
100.16795141466115
100.11925076708684
100.0997210727143
100.09458146498972
100.09972107122437
100.119250762891
100.16795148731372
100.27941933535742
100.52217338831585
101.0268756513948
102.02717928844628
103.91327575113985
107.28980870412273
113.01926386054504
122.22222183727548
136.20454171281702
156.29653047289597
183.62130246495622
218.84783631250912
218.80510961849208
183.5769817072731
156.25097874561573
136.15802402506125
122.17495598037169
112.97148473708718
107.24166300537685
103.86490092795518
101.97865658511874
100.97826650782768
100.47351489889441
100.23073281527635
100.11925070229407
100.07054292661729
100.05101003728187
100.04586952813699
100.05101003579036
100.07054292241827
100.11925077495397
100.23073298506635
100.47351446813984
100.97826680813513
101.97865792618866
103.86490059867184
107.24166728177212
112.97147979618023
122.17496045305711
136.15801203532376
156.25098204144848
183.57701611779444
218.80510939991902
218.78800633250842
183.559253241511
156.23274235178584
136.13939074011705
122.15602489691152
112.95233935594742
107.22236986019537
103.8455102131843
101.95920419343092
100.95877679445752
100.45400356427594
100.21120948888898
100.09972101714179
100.05101004650946
100.03147570991665
100.02633478979848
100.03147570842467
100.05101004230961
100.09972108980637
100.2112096586914
100.45400313351315
100.95877709480668
101.95920553461129
103.84550988401168
107.22237413691487
112.95233441524262
122.15602937015812
136.13937875073688
156.23274564840574
183.55928765345334
218.78800611473386
218.783510551206
183.55459296551126
156.22794810255834
136.13449147085842
122.15104651808363
112.94730378380018
107.21729464022162
103.84040865616169
101.95408587820992
100.95364826672069
100.44886907590337
100.20607166888408
100.0945814166029
100.04586954455431
100.02633479698893
100.0211937597087
100.02633479549688
100.04586954035452
100.09458148926954
100.20607183869191
100.44886864514278
100.95364856709057
101.95408721943721
103.84040832704736
107.21729891707245
112.947298843213
122.15105099156487
136.13447948167928
156.2279513995093
183.55462737796108
218.78351033377433
218.78800633519393
183.55925324431436
156.2327423547258
136.1393907432021
122.15602490013828
112.95233935930062
107.2223698636516
103.84551021671761
101.95920419701703
100.95877679807697
100.4540035679145
100.21120949253749
100.0997210207951
100.0510100501648
100.03147571357266
100.02633479345455
100.03147571208065
100.05101004596533
100.09972109346134
100.21120966234484
100.4540031371639
100.95877709845259
101.9592055382486
103.84550988763499
107.22237414051646
112.95233441881221
122.15602937368236
136.13937875420046
156.23274565179088
183.5592876567409
218.78800611790427
218.80510962522584
183.57698171431082
156.25097875301714
136.1580240328567
122.17495598855311
112.97148474561129
107.24166301417726
103.86490093695869
101.9786565942585
100.97826651705064
100.47351490816372
100.23073282456886
100.11925071159696
100.0705429359243
100.05101004658995
100.0458695374452
100.05101004509822
100.07054293172526
100.11925078425935
100.23073299436831
100.47351447743529
100.97826681741867
101.97865793545127
103.86490060789976
107.24166729094563
112.97147980527265
122.17496046203475
136.1580120441465
156.2509820500711
183.57701612616844
218.80510940799473
218.84783654846714
183.62126807407998
156.2965271960011
136.20455372138747
122.22221738486265
113.01926882167794
107.28980444891057
103.91327610157342
102.02717796884104
101.0268753725791
100.52217384054877
100.27941918714227
100.16795143623256
100.11925078866392
100.09972109429232
100.09458148656718
100.09972109280082
100.11925078446576
100.16795150888521
100.27941935692212
100.52217340986738
101.02687567292112
102.02717930992775
103.91327577254555
107.28980872540738
113.01926388164684
122.22222185811583
136.20454173330165
156.29653049291858
183.62130248440317
218.84783633126372
218.94582525662418
183.7228270235104
156.40096299894202
136.3112135033698
122.33052391100598
113.12874183076619
107.40006730460149
104.02404996420192
102.13826768895947
101.13815165174309
100.63355545778137
100.39085768526661
100.2794192854026
100.23073299988492
100.21120966428896
100.20607183710379
100.21120966279794
100.23073299568816
100.27941935803533
100.39085785500517
100.63355502719631
101.13815195202682
102.13826902981216
104.02404963523193
107.40007158048643
113.12873689139732
122.33052838372005
136.3112015166608
156.40096629551107
183.7228614302869
218.94582503944397
219.1596459341349
183.94442461207555
156.62879895533294
136.5438437858012
122.56667836123795
113.36737108858709
107.64035562885886
104.26539967216621
102.38026540673754
101.38052705928946
100.87614114113515
100.63355526089659
100.52217374183246
100.47351488643784
100.4540035426146
100.44886904706867
100.45400354112458
100.47351488224362
100.52217381442652
100.63355543055371
100.87614071073982
101.3805273594545
102.38026674711091
104.26539934331127
107.64035990346018
113.36736615060768
122.56668283279365
136.54383180203774
156.62880225113503
183.94445901112937
219.1596457169929
219.60503676125234
184.4059865183662
157.10327459315627
137.02818570629174
123.05822001857553
113.86392504890328
108.14023640111573
104.76738511638301
102.88352019172682
101.88451200914497
101.38052699785516
101.13815139357801
101.02687521248892
100.97826643386892
100.95877671132061
100.95364817642839
100.95877670983229
100.97826642967927
101.02687528501183
101.13815156308294
101.38052656781853
101.8845123090815
102.88352153116595
104.76738478775192
108.14024067315418
113.86392011371909
123.0582244877701
137.02817372856336
157.103277887371
184.40602090139328
219.6050365441878
220.48937840796592
185.32238162565594
158.0451540803181
137.98942342243447
124.03348320833159
114.84886975277078
109.1315445336635
105.76267530199627
103.88118352944724
102.88352315556196
102.38026831130283
102.13827039817986
102.02718077651325
101.97865947894907
101.9592070782404
101.95408875592443
101.95920707675504
101.9786594747673
102.02718084891086
102.13827056741323
102.38026788191452
102.88352345507923
103.88118486714875
105.76267497378265
109.131548800823
114.84886482295389
124.03348767294321
137.9894114565022
158.04515737140815
185.3224159769838
220.48937819106095
222.1596235888878
187.05306611134446
159.8236872561452
139.80410031017962
125.87416615724503
116.70735721318877
111.00162476540665
107.63993424539244
105.76267215321889
104.76738492048122
104.26539941492817
104.02404951102184
103.91327574603152
103.86490065794945
103.84550993413704
103.84040837004167
103.8455099326567
103.86490065378091
103.9132758182182
104.02404967979147
104.26539898665864
104.7673852192652
105.76267348783963
107.63993391792195
111.00162902371937
116.70735229318785
125.8741706133897
139.80408836619262
159.8236905413849
187.0531004030286
222.15962337229539
225.1543639154598
190.15600481049756
163.0119391341559
143.05645384821943
129.1723390971456
120.03665558136531
114.35100933130882
111.00163435288621
109.13155100467625
108.14024582449582
107.64036499695702
107.4000764805512
107.28981372347312
107.24167236554429
107.22237921172231
107.21730398482478
107.22237921024963
107.24167236139665
107.28981379532019
107.40007664856478
107.64036457053014
108.14024612205621
109.13155233409395
111.00163402667557
114.35101357436106
120.0366506784341
129.1723435384242
143.05644194302027
163.01194240899224
190.15603899562302
225.15436369944914
230.2430629217894
195.428289807987
168.4284364521679
148.58077245833726
134.77325618108043
125.68923027223617
120.03664545027254
116.70735657645187
114.84886599809015
113.8639242163157
113.36737019495499
113.12874074326866
113.01926783065505
112.97148383016393
112.95233844029696
112.94730286125977
112.95233843883577
112.97148382604776
113.01926790197972
113.12874091010555
113.36736977142303
113.86392451193156
114.84886731914338
116.70735625227304
120.03664966830958
125.68922539749573
134.77326059758735
148.58076061817223
168.42843970946208
195.42832381264827
230.24306270679884
238.42687981905252
203.9069691992943
177.13795066489584
157.46209723258838
143.77596061933306
134.7732555280239
129.17232840306932
125.87416486764492
124.03347882987904
123.05821853324802
122.56667681515985
122.33052217294829
122.22221574222135
122.17495442063901
122.15602332868606
122.15104494310665
122.15602332724147
122.17495441656877
122.22221581277746
122.33052233803673
122.56667639596601
123.05821882591975
124.03348013813768
125.87416454658283
129.17233258216513
134.77325069746493
143.77596499670065
157.4620854957522
177.13795389417348
203.90700291460078
238.42687960575017
250.87400324762126
216.80204609616564
190.3826599726095
170.9660092543919
157.4620963511017
148.58077092485104
143.0564424073899
139.80409814141169
137.98941820731682
137.0281833422625
136.54384136149775
136.31121088978443
136.20455120171772
136.1580215867274
136.1393882935657
136.13448901772412
136.1393882921441
136.15802158272095
136.2045512711927
136.3112110523914
136.54384094850613
137.02818363068693
137.98941949695228
139.80409782489716
143.05644652893054
148.58076615997848
157.46210066986174
170.96599767304215
190.38266315953425
216.80207937254377
250.87400303694835
268.775701239607
235.3473733065666
209.4290719765449
190.3826588750241
177.13794868820918
168.42843382655633
163.0119267896969
159.82368399848656
158.0451478354568
157.103271141312
156.62879544394661
156.40095930196478
156.29652359090855
156.25097521987567
156.2327388181261
156.2279445625092
156.2327388167349
156.25097521595433
156.2965236589278
156.4009594612054
156.62879503942085
157.10327142389494
158.04514909928545
159.8236836882863
163.0119308304434
168.42842915435244
177.1379529237846
190.3826475152809
209.4290751028694
235.3474059530814
268.7757010327907
293.1387964014852
260.58572233746884
235.34743857129095
216.80211155137982
203.90703467618948
195.42835523174884
190.15606113579395
187.05313149407914
185.32244422114297
184.40605189496995
183.9444899628411
183.72289220925154
183.6213333563158
183.57704706962622
183.55931859751476
183.55465831567352
183.5593185961624
183.577047065814
183.62133342245696
183.72289236412212
183.94448956936083
184.40605216988467
185.3224454508883
187.05313119223146
190.15606506871592
195.42835068371446
203.90703879975604
216.80210049103175
235.34744161548272
260.5857541283235
293.1387961999987
324.5635313832247
293.13873780634367
268.7757040694908
250.8740051006597
238.42688088427843
230.24306340268248
225.15435528257873
222.15962350163366
220.48937552109825
219.6050364999714
219.15964561843538
218.94582476748937
218.84783614590742
218.805109290314
218.78800599709146
218.7835102098651
218.78800599578685
218.80510928663625
218.84783620972183
218.94582491692108
219.15964523875326
219.60503676526272
220.48937670786952
222.15962321032953
225.15435907846785
230.2430590129345
238.4268848645291
250.87399442435904
268.7757070080738
293.1387684950238
324.56353118869146
