# vtk DataFile Version 2.0
Unstructured Grid Example
ASCII
DATASET UNSTRUCTURED_GRID

POINTS 961.0 float
0.100000001 0.00499999989 0
0.0966666639 0.00499999989 0
0.0933333337 0.00499999989 0
0.0900000036 0.00499999989 0
0.086666666 0.00499999989 0
0.0833333358 0.00499999989 0
0.0799999982 0.00499999989 0
0.0766666681 0.00499999989 0
0.0733333305 0.00499999989 0
0.0700000003 0.00499999989 0
0.0666666701 0.00499999989 0
0.0633333325 0.00499999989 0
0.0599999987 0.00499999989 0
0.0566666685 0.00499999989 0
0.0533333346 0.00499999989 0
0.0500000007 0.00499999989 0
0.0466666669 0.00499999989 0
0.043333333 0.00499999989 0
0.0399999991 0.00499999989 0
0.0366666652 0.00499999989 0
0.0333333351 0.00499999989 0
0.0299999993 0.00499999989 0
0.0266666673 0.00499999989 0
0.0233333334 0.00499999989 0
0.0199999996 0.00499999989 0
0.0166666675 0.00499999989 0
0.0133333337 0.00499999989 0
0.00999999978 0.00499999989 0
0.00666666683 0.00499999989 0
0.00333333341 0.00499999989 0
0.0 0.00499999989 0
0.100000001 0.00166666671 0
0.0966666639 0.00166666671 0
0.0933333337 0.00166666671 0
0.0900000036 0.00166666671 0
0.086666666 0.00166666671 0
0.0833333358 0.00166666671 0
0.0799999982 0.00166666671 0
0.0766666681 0.00166666671 0
0.0733333305 0.00166666671 0
0.0700000003 0.00166666671 0
0.0666666701 0.00166666671 0
0.0633333325 0.00166666671 0
0.0599999987 0.00166666671 0
0.0566666685 0.00166666671 0
0.0533333346 0.00166666671 0
0.0500000007 0.00166666671 0
0.0466666669 0.00166666671 0
0.043333333 0.00166666671 0
0.0399999991 0.00166666671 0
0.0366666652 0.00166666671 0
0.0333333351 0.00166666671 0
0.0299999993 0.00166666671 0
0.0266666673 0.00166666671 0
0.0233333334 0.00166666671 0
0.0199999996 0.00166666671 0
0.0166666675 0.00166666671 0
0.0133333337 0.00166666671 0
0.00999999978 0.00166666671 0
0.00666666683 0.00166666671 0
0.00333333341 0.00166666671 0
0.0 0.00166666671 0
0.100000001 -0.00166666671 0
0.0966666639 -0.00166666671 0
0.0933333337 -0.00166666671 0
0.0900000036 -0.00166666671 0
0.086666666 -0.00166666671 0
0.0833333358 -0.00166666671 0
0.0799999982 -0.00166666671 0
0.0766666681 -0.00166666671 0
0.0733333305 -0.00166666671 0
0.0700000003 -0.00166666671 0
0.0666666701 -0.00166666671 0
0.0633333325 -0.00166666671 0
0.0599999987 -0.00166666671 0
0.0566666685 -0.00166666671 0
0.0533333346 -0.00166666671 0
0.0500000007 -0.00166666671 0
0.0466666669 -0.00166666671 0
0.043333333 -0.00166666671 0
0.0399999991 -0.00166666671 0
0.0366666652 -0.00166666671 0
0.0333333351 -0.00166666671 0
0.0299999993 -0.00166666671 0
0.0266666673 -0.00166666671 0
0.0233333334 -0.00166666671 0
0.0199999996 -0.00166666671 0
0.0166666675 -0.00166666671 0
0.0133333337 -0.00166666671 0
0.00999999978 -0.00166666671 0
0.00666666683 -0.00166666671 0
0.00333333341 -0.00166666671 0
0.0 -0.00166666671 0
0.100000001 -0.00499999989 0
0.0966666639 -0.00499999989 0
0.0933333337 -0.00499999989 0
0.0900000036 -0.00499999989 0
0.086666666 -0.00499999989 0
0.0833333358 -0.00499999989 0
0.0799999982 -0.00499999989 0
0.0766666681 -0.00499999989 0
0.0733333305 -0.00499999989 0
0.0700000003 -0.00499999989 0
0.0666666701 -0.00499999989 0
0.0633333325 -0.00499999989 0
0.0599999987 -0.00499999989 0
0.0566666685 -0.00499999989 0
0.0533333346 -0.00499999989 0
0.0500000007 -0.00499999989 0
0.0466666669 -0.00499999989 0
0.043333333 -0.00499999989 0
0.0399999991 -0.00499999989 0
0.0366666652 -0.00499999989 0
0.0333333351 -0.00499999989 0
0.0299999993 -0.00499999989 0
0.0266666673 -0.00499999989 0
0.0233333334 -0.00499999989 0
0.0199999996 -0.00499999989 0
0.0166666675 -0.00499999989 0
0.0133333337 -0.00499999989 0
0.00999999978 -0.00499999989 0
0.00666666683 -0.00499999989 0
0.00333333341 -0.00499999989 0
0.0 -0.00499999989 0
0.100000001 -0.00833333377 0
0.0966666639 -0.00833333377 0
0.0933333337 -0.00833333377 0
0.0900000036 -0.00833333377 0
0.086666666 -0.00833333377 0
0.0833333358 -0.00833333377 0
0.0799999982 -0.00833333377 0
0.0766666681 -0.00833333377 0
0.0733333305 -0.00833333377 0
0.0700000003 -0.00833333377 0
0.0666666701 -0.00833333377 0
0.0633333325 -0.00833333377 0
0.0599999987 -0.00833333377 0
0.0566666685 -0.00833333377 0
0.0533333346 -0.00833333377 0
0.0500000007 -0.00833333377 0
0.0466666669 -0.00833333377 0
0.043333333 -0.00833333377 0
0.0399999991 -0.00833333377 0
0.0366666652 -0.00833333377 0
0.0333333351 -0.00833333377 0
0.0299999993 -0.00833333377 0
0.0266666673 -0.00833333377 0
0.0233333334 -0.00833333377 0
0.0199999996 -0.00833333377 0
0.0166666675 -0.00833333377 0
0.0133333337 -0.00833333377 0
0.00999999978 -0.00833333377 0
0.00666666683 -0.00833333377 0
0.00333333341 -0.00833333377 0
0.0 -0.00833333377 0
0.100000001 -0.0116666667 0
0.0966666639 -0.0116666667 0
0.0933333337 -0.0116666667 0
0.0900000036 -0.0116666667 0
0.086666666 -0.0116666667 0
0.0833333358 -0.0116666667 0
0.0799999982 -0.0116666667 0
0.0766666681 -0.0116666667 0
0.0733333305 -0.0116666667 0
0.0700000003 -0.0116666667 0
0.0666666701 -0.0116666667 0
0.0633333325 -0.0116666667 0
0.0599999987 -0.0116666667 0
0.0566666685 -0.0116666667 0
0.0533333346 -0.0116666667 0
0.0500000007 -0.0116666667 0
0.0466666669 -0.0116666667 0
0.043333333 -0.0116666667 0
0.0399999991 -0.0116666667 0
0.0366666652 -0.0116666667 0
0.0333333351 -0.0116666667 0
0.0299999993 -0.0116666667 0
0.0266666673 -0.0116666667 0
0.0233333334 -0.0116666667 0
0.0199999996 -0.0116666667 0
0.0166666675 -0.0116666667 0
0.0133333337 -0.0116666667 0
0.00999999978 -0.0116666667 0
0.00666666683 -0.0116666667 0
0.00333333341 -0.0116666667 0
0.0 -0.0116666667 0
0.100000001 -0.0149999997 0
0.0966666639 -0.0149999997 0
0.0933333337 -0.0149999997 0
0.0900000036 -0.0149999997 0
0.086666666 -0.0149999997 0
0.0833333358 -0.0149999997 0
0.0799999982 -0.0149999997 0
0.0766666681 -0.0149999997 0
0.0733333305 -0.0149999997 0
0.0700000003 -0.0149999997 0
0.0666666701 -0.0149999997 0
0.0633333325 -0.0149999997 0
0.0599999987 -0.0149999997 0
0.0566666685 -0.0149999997 0
0.0533333346 -0.0149999997 0
0.0500000007 -0.0149999997 0
0.0466666669 -0.0149999997 0
0.043333333 -0.0149999997 0
0.0399999991 -0.0149999997 0
0.0366666652 -0.0149999997 0
0.0333333351 -0.0149999997 0
0.0299999993 -0.0149999997 0
0.0266666673 -0.0149999997 0
0.0233333334 -0.0149999997 0
0.0199999996 -0.0149999997 0
0.0166666675 -0.0149999997 0
0.0133333337 -0.0149999997 0
0.00999999978 -0.0149999997 0
0.00666666683 -0.0149999997 0
0.00333333341 -0.0149999997 0
0.0 -0.0149999997 0
0.100000001 -0.0183333326 0
0.0966666639 -0.0183333326 0
0.0933333337 -0.0183333326 0
0.0900000036 -0.0183333326 0
0.086666666 -0.0183333326 0
0.0833333358 -0.0183333326 0
0.0799999982 -0.0183333326 0
0.0766666681 -0.0183333326 0
0.0733333305 -0.0183333326 0
0.0700000003 -0.0183333326 0
0.0666666701 -0.0183333326 0
0.0633333325 -0.0183333326 0
0.0599999987 -0.0183333326 0
0.0566666685 -0.0183333326 0
0.0533333346 -0.0183333326 0
0.0500000007 -0.0183333326 0
0.0466666669 -0.0183333326 0
0.043333333 -0.0183333326 0
0.0399999991 -0.0183333326 0
0.0366666652 -0.0183333326 0
0.0333333351 -0.0183333326 0
0.0299999993 -0.0183333326 0
0.0266666673 -0.0183333326 0
0.0233333334 -0.0183333326 0
0.0199999996 -0.0183333326 0
0.0166666675 -0.0183333326 0
0.0133333337 -0.0183333326 0
0.00999999978 -0.0183333326 0
0.00666666683 -0.0183333326 0
0.00333333341 -0.0183333326 0
0.0 -0.0183333326 0
0.100000001 -0.0216666665 0
0.0966666639 -0.0216666665 0
0.0933333337 -0.0216666665 0
0.0900000036 -0.0216666665 0
0.086666666 -0.0216666665 0
0.0833333358 -0.0216666665 0
0.0799999982 -0.0216666665 0
0.0766666681 -0.0216666665 0
0.0733333305 -0.0216666665 0
0.0700000003 -0.0216666665 0
0.0666666701 -0.0216666665 0
0.0633333325 -0.0216666665 0
0.0599999987 -0.0216666665 0
0.0566666685 -0.0216666665 0
0.0533333346 -0.0216666665 0
0.0500000007 -0.0216666665 0
0.0466666669 -0.0216666665 0
0.043333333 -0.0216666665 0
0.0399999991 -0.0216666665 0
0.0366666652 -0.0216666665 0
0.0333333351 -0.0216666665 0
0.0299999993 -0.0216666665 0
0.0266666673 -0.0216666665 0
0.0233333334 -0.0216666665 0
0.0199999996 -0.0216666665 0
0.0166666675 -0.0216666665 0
0.0133333337 -0.0216666665 0
0.00999999978 -0.0216666665 0
0.00666666683 -0.0216666665 0
0.00333333341 -0.0216666665 0
0.0 -0.0216666665 0
0.100000001 -0.0250000004 0
0.0966666639 -0.0250000004 0
0.0933333337 -0.0250000004 0
0.0900000036 -0.0250000004 0
0.086666666 -0.0250000004 0
0.0833333358 -0.0250000004 0
0.0799999982 -0.0250000004 0
0.0766666681 -0.0250000004 0
0.0733333305 -0.0250000004 0
0.0700000003 -0.0250000004 0
0.0666666701 -0.0250000004 0
0.0633333325 -0.0250000004 0
0.0599999987 -0.0250000004 0
0.0566666685 -0.0250000004 0
0.0533333346 -0.0250000004 0
0.0500000007 -0.0250000004 0
0.0466666669 -0.0250000004 0
0.043333333 -0.0250000004 0
0.0399999991 -0.0250000004 0
0.0366666652 -0.0250000004 0
0.0333333351 -0.0250000004 0
0.0299999993 -0.0250000004 0
0.0266666673 -0.0250000004 0
0.0233333334 -0.0250000004 0
0.0199999996 -0.0250000004 0
0.0166666675 -0.0250000004 0
0.0133333337 -0.0250000004 0
0.00999999978 -0.0250000004 0
0.00666666683 -0.0250000004 0
0.00333333341 -0.0250000004 0
0.0 -0.0250000004 0
0.100000001 -0.0283333343 0
0.0966666639 -0.0283333343 0
0.0933333337 -0.0283333343 0
0.0900000036 -0.0283333343 0
0.086666666 -0.0283333343 0
0.0833333358 -0.0283333343 0
0.0799999982 -0.0283333343 0
0.0766666681 -0.0283333343 0
0.0733333305 -0.0283333343 0
0.0700000003 -0.0283333343 0
0.0666666701 -0.0283333343 0
0.0633333325 -0.0283333343 0
0.0599999987 -0.0283333343 0
0.0566666685 -0.0283333343 0
0.0533333346 -0.0283333343 0
0.0500000007 -0.0283333343 0
0.0466666669 -0.0283333343 0
0.043333333 -0.0283333343 0
0.0399999991 -0.0283333343 0
0.0366666652 -0.0283333343 0
0.0333333351 -0.0283333343 0
0.0299999993 -0.0283333343 0
0.0266666673 -0.0283333343 0
0.0233333334 -0.0283333343 0
0.0199999996 -0.0283333343 0
0.0166666675 -0.0283333343 0
0.0133333337 -0.0283333343 0
0.00999999978 -0.0283333343 0
0.00666666683 -0.0283333343 0
0.00333333341 -0.0283333343 0
0.0 -0.0283333343 0
[...]
POINT_DATA 961.0
SCALARS Temp float 1
LOOKUP_TABLE default
276.70113931672125
244.83760716799392
222.63698703111015
208.52871210766378
200.35191567997538
196.01762386981449
193.90609949305045
192.9549371646588
192.55611851652276
192.3994240355957
192.34136458873786
192.32095628153456
192.31411500613174
192.3119208136058
192.31125732435171
192.31111296740383
192.3112573240769
192.31192081260764
192.3141150073092
192.32095628555274
192.3413645202139
192.3994240005563
192.5561185601363
192.95493655852493
193.90609957379192
196.01761884504322
200.3519116683839
208.5286921516661
222.63696802855378
244.83761232830557
276.70109794191984
244.8376941038846
211.87371339998626
188.90480204754306
174.3069482022973
165.84544848375384
161.35966727987378
159.17403987640094
158.18935597420634
157.77642250075345
157.61415943214976
157.55402845937064
157.53288923238756
157.52580205871345
157.52352873486237
157.52284124588223
157.5226916565661
157.52284124559432
157.5235287338156
157.52580205988895
157.53288923639684
157.55402838788814
157.6141593942273
157.7764225408642
158.18935533171944
159.17403991755012
161.35966196246113
165.8454440238539
174.30692666821338
188.90478034881482
211.87370088152997
244.83761594734278
222.63706765878104
188.90480454988472
165.39648574197307
150.45227709477555
141.78749346166174
137.19241129953164
134.95271861031316
133.94329633970455
133.51982723204208
133.35336138946576
133.2916503156586
133.2699479365514
133.26266950874455
133.26033409571411
133.2596276285043
133.25947387961597
133.25962762819938
133.26033409460382
133.2626695098284
133.26994794024455
133.29165024088542
133.35336134609554
133.519827259553
133.94329564110663
134.95271854102168
137.1924055530365
141.78748811605
150.452253093899
165.39645788823685
188.90478019944607
222.63697098288264
208.52879685591148
174.30695671225254
150.4522846328353
135.2833886856495
126.48507318415872
121.81717367563591
119.54091439755618
118.51449944462594
118.0836811511878
117.91423943780714
117.8513934168066
117.82928103542753
117.82186159114761
117.81947985812052
117.81875908530276
117.81860217890997
117.8187590849786
117.81947985693792
117.82186159207608
117.82928103859274
117.85139333868965
117.91423938753765
118.08368116085668
118.51449868178852
119.54091418535054
121.81716747210555
126.48506687052027
135.28336225858186
150.4522522985757
174.3069256600214
208.52869218039885
200.3520227062056
165.84547852619897
141.78752286997667
126.48509540066628
117.60620130470338
112.89359152168294
110.59445681556568
109.5572046189248
109.12160813476223
108.95019490170114
108.88658331024891
108.86418961154872
108.85667185334512
108.85425734601839
108.85352631839328
108.85336712862033
108.85352631804982
108.85425734476256
108.85667185408947
108.8641896141003
108.88658322907084
108.95019484444272
109.12160812592555
109.5572037965604
110.59445646825856
112.8935849359032
117.60619421376407
126.48506732121017
141.78748790765863
165.8454441373737
200.35191411069945
196.01773773864844
161.35969984604105
137.19244270888566
121.81719788833465
112.89359347797493
108.15567683525076
105.84331113039117
104.79964788298574
104.36115977334264
104.18852648467092
104.12443081464139
104.1018555577503
104.09427311652716
104.0918366580772
104.091098653378
104.09093789357611
104.09109865301643
104.0918366567547
104.09427311709179
104.10185555971799
104.12443073094589
104.18852642141961
104.36115974881363
104.79964701420471
105.84331068021784
108.15566998601037
112.89358589289884
121.8171688684263
137.19240639593176
161.35966386132884
196.0176273022135
193.9062180498777
159.17407718813251
134.95275516819856
119.54094408882219
110.59446438570865
105.8433168209138
103.5238672768788
102.47668443863905
102.03656774948549
101.86322964591756
101.79884733418476
101.77616199692011
101.76853945117891
101.76608909654021
101.76534659327127
101.76518480866436
101.76534659289467
101.76608909516283
101.76853945159102
101.77616199840719
101.7988472486264
101.86322957819965
102.03656771360617
102.47668353869467
103.5238667606892
105.84330981721189
110.59445653169493
119.54091459643409
134.95271821881406
159.17404048758365
193.9061067924393
192.9550487754537
158.18939081063834
133.94333195433052
118.51452871624147
109.55721193977163
104.79965339516758
102.47668427304534
101.42770527440554
100.98673414646828
100.81301582484276
100.74847459104048
100.7257265861807
100.71808062673782
100.71562196569558
100.71487671686175
100.71471429804086
100.71487671647319
100.71562196427632
100.71808062703373
100.72572658731613
100.74847450423458
100.81301575418011
100.98673410341678
101.42770435610979
102.47668372007719
104.7996463117343
109.55720395558241
118.51449900792483
133.94329472752565
158.1893538088275
192.95493717346238
192.55622386242126
157.77645599566313
133.51986294084844
118.08371093586922
109.12161612213457
104.36116601925919
102.03656833996918
100.98673491040441
100.54534536997392
100.3714352742406
100.3068114891231
100.28402998189792
100.27637115432069
100.2739078075351
100.27316097374418
100.27299818313566
100.27316097334584
100.27390780608377
100.27637115453174
100.2840299827937
100.30681140154579
100.37143520182126
100.54534532286752
100.98673398243588
102.03656776870305
104.36115889865385
109.12160808048095
118.08368113637495
133.51982560114922
157.77641887461436
192.5561121241602
192.3995297134982
157.61419322626057
133.35339689256205
117.91426899786553
108.950202697788
104.18853256686813
101.86323008420118
100.8130164411427
100.37143512711705
100.19743440886182
100.13277039301464
100.1099720529727
100.1023065653941
100.09984072417245
100.09909302525433
100.09893002830826
100.09909302484499
100.09984072268966
100.10230656553094
100.10997205368851
100.13277030494733
100.19743433540798
100.37143507781286
100.81301550836696
101.86322950440949
104.18852543002632
108.95019463226589
117.91423916196622
133.3533595091803
157.61415606011514
192.3994179237602
192.34148096761945
157.55406381595787
133.29168606625868
117.8514229774242
108.88659106980002
104.12443685842598
101.798847734009
100.74847516868014
100.3068113025976
100.13277035318269
100.06808790487239
100.04528160478107
100.03761286826439
100.03514577334403
100.03439762789067
100.03423452254553
100.03439762745846
100.03514577180366
100.03761286828232
100.04528160526006
100.06808781631807
100.13277027884126
100.30681125169022
100.74847423295144
101.79884714949894
104.1244297136016
108.88658299327423
117.851393125805
133.2916486646224
157.55402663124158
192.3413691570443
192.32107316203695
157.53292459944785
133.2699836172664
117.82931048727171
108.86419723411451
104.10186144177364
101.7761622228397
100.72572698239496
100.28402961002392
100.10997182587468
100.04528141667141
100.02247156642859
100.01480133378898
100.0123336433741
100.01158527984448
100.01142212056504
100.01158527934743
100.01233364167356
100.01480133348434
100.0224715663047
100.04528132703796
100.10997174972857
100.28402955623156
100.7257260422106
101.77616163194021
104.10185428793649
108.86418914607074
117.8292806211894
133.26994619936278
157.5328873979178
192.32096133396817
192.31422058217956
157.52583524834827
133.2627042128185
117.8218902432378
108.85667861614708
104.09427808015927
101.76853871953163
100.71808004550293
100.27636979459477
100.10230534497619
100.03761168395465
100.01480033625099
100.00712945176312
100.0046614935281
100.00391302905975
100.00374984429597
100.00391302836813
100.00466149133894
100.00712945045467
100.01480033422396
100.03761159092124
100.10230526311025
100.27636973170603
100.71807909162591
101.7685381092162
104.09427090020088
108.8566704950989
117.82186033760642
133.26266675051644
157.52579800002346
192.3141087074048
192.31202253838376
157.52355832057003
133.26036595065972
117.81950535818254
108.85426071837117
104.0918380853706
101.76608474645137
100.71561771990595
100.27390275686633
100.09983579754348
100.0351408740625
100.01232892605314
100.0046577715127
100.0021896986255
100.00144118959686
100.00127799322945
100.00144118833585
100.00218969497206
100.00465776710398
100.01232891796853
100.03514076991505
100.09983569648573
100.27390266276534
100.71561671821263
101.76608406716976
104.09183081170208
108.85425247750733
117.8194753083276
133.26032832523396
157.52352089908695
192.31191049137516
192.3113519869338
157.52286298071598
133.25964847263307
117.81877244320545
108.85351697876436
104.09108705088859
101.76532902124936
100.71485912894694
100.27314250561126
100.09907463495536
100.03437923765709
100.01156705625728
100.00389579278259
100.00142767186344
100.00067914339643
100.00051594149704
100.00067914054256
100.0014276640012
100.00389577915587
100.01156702952986
100.0343790981697
100.09907447099293
100.27314230636556
100.71485796224175
101.76532809886291
104.09107944102104
108.85350830160885
117.81874186226807
133.2596102414184
157.5228249127046
192.31123929600216
192.311189330387
157.52267511111927
133.25945222113077
117.81857105641184
108.85331215424746
104.09087988292539
101.76512029574165
100.71464940868687
100.27293217883674
100.09886395643034
100.03416836553512
100.01135608316808
100.00368476984714
100.00121662567298
100.00046808705538
100.00030488131311
100.00046807997305
100.00121660629873
100.00368473006152
100.01135600150887
100.03416811810746
100.09886359381143
100.27293163730363
100.71464769006984
101.7651185407899
104.09087109831215
108.85330192715082
117.81853856424232
133.25941178934485
157.52263468109797
192.31107428248606
192.3111924962179
157.52267822363083
133.25945495215822
117.8185731673162
108.85331352989628
104.09088052381915
101.76512028870114
100.71464888622546
100.27293128301649
100.09886281285637
100.0341670707083
100.01135470308138
100.0036833452064
100.00121517927285
100.00046663039025
100.00030341915753
100.00046661270669
100.00121513009272
100.00368323495982
100.01135446733684
100.03416650844092
100.09886184921365
100.27292967065021
100.71464538836095
101.76511577819456
104.09086776291508
108.85329795865744
117.8185339891597
133.2594067413411
157.52262939056982
192.3110690451617
192.3113613431428
157.5228718602224
133.25965531006653
117.8187761451968
108.8535170451625
104.09108355382499
101.76532243427688
100.71485013147155
100.27313179981529
100.09906282240054
100.03436676652402
100.01155422369875
100.00388277646518
100.00141456827
100.00066599982608
100.00050277720408
100.00066595715464
100.00141444640093
100.00388248703555
100.01155357878702
100.03436533216812
100.09906012608502
100.27312698424069
100.7148411308504
101.7653091475588
104.09105780636742
108.85348365387273
117.81871430651907
133.25958042231812
157.52279400323576
192.3112087970281
192.3120268880628
157.5235597942195
133.26035924274
117.81948673599582
108.85422879241275
104.0917934241665
101.76602932870657
100.71555415545554
100.27383360627339
100.09976315603745
100.03506623382911
100.012253232243
100.00458156367209
100.00211325664796
100.00136464500603
100.00120139795831
100.00136454719498
100.00211296861342
100.00458084641846
100.01225156485653
100.0350625194788
100.0997557286664
100.2738196812669
100.71552891454371
101.76598927433473
104.09172693012961
108.85413816220222
117.8193507559839
133.26019590184046
157.52338491774924
192.31177681566382
192.31413198072485
157.52573373462278
133.26257078273673
117.82171415434091
108.85645609667469
104.09401236448737
101.76823764205217
100.7177531041066
100.276025788089
100.10195110964547
100.03725184516108
100.0144376755217
100.00676547618767
100.00429694593467
100.00354824247917
100.00338494588196
100.00354803118837
100.00429630348904
100.00676380516411
100.01443361877418
100.0372425424996
100.1019315303945
100.27598739745244
100.71768240864047
101.76811984594626
104.09382367566127
108.8561891719045
117.8213449655687
133.2621249462064
157.5252461134983
192.31356653526746
192.32045325752284
157.53223934554092
133.26918562084643
117.82836463642063
108.86309552344318
104.1006193213705
101.77480915596085
100.72429588771115
100.28254919402384
100.10846317298677
100.04375801718658
100.02094109068922
100.01326771397031
100.01079871743033
100.01004983327056
100.00988644337869
100.01004940489982
100.01079737270635
100.01326406823482
100.02093184599228
100.04373596636277
100.10841445782297
100.28244922358938
100.72410542215928
101.77447780090809
104.10008248772961
108.86231071825071
117.82729357633349
133.2678744958187
157.53078344532042
192.31890782120908
192.33844563086362
157.5508171617263
133.2880474729721
117.84729289931963
108.88196031340148
104.1193709303313
101.79345127861386
100.74285620434424
100.30105819773722
100.12694418044424
100.06222545151529
100.03940258271082
100.03172682357602
100.02925693823912
100.02850772877012
100.02834417698837
100.02850691560255
100.02925430575219
100.03171939990163
100.03938293739004
100.06217653803138
100.12683080691363
100.30081425502262
100.74237120511579
101.79256949606958
104.11789850660227
108.87973363955369
117.84421176607272
133.28420678699285
157.5464947924996
192.33398660422174
192.38729738810326
157.60117362966938
133.33908360811355
117.89839756911394
108.93280127782069
104.16985296539825
101.84362179324626
100.79281277083471
100.35089072128963
100.17671398912363
100.1119669963268
100.0891325705768
100.0814524623184
100.07898104720094
100.07823130746816
100.0780674983698
100.0782298641312
100.07897623769264
100.08143839147085
100.08909378884242
100.11186618864268
100.17646900748865
100.35033725919874
100.79165874701134
101.8414219027776
104.16602967012655
108.92679833166413
117.88987340077186
133.3282235552292
157.58877679260118
192.3745890392053
192.5123764006979
157.72999131237125
133.46935170836517
118.0285145903892
109.06199650055655
104.29801230287418
101.97097285379881
100.9196573778867
100.47746608166266
100.30316397486136
100.23836458099738
100.21551015374035
100.20782297829524
100.2053492182253
100.20459870688661
100.20443452618845
100.20459631321768
100.20534102890257
100.20779820230844
100.21543924605146
100.23817253972813
100.3026755554142
100.47630761908854
100.91711686988376
101.96587583144142
104.28872594285794
109.04677582598181
118.00615798491218
133.44011436105814
157.69606300079042
192.47753236611
192.81279257327807
158.0390419219559
133.78103958795228
118.33892547485432
109.3695806776104
104.60289364147422
102.27397387662445
101.22159576495295
100.77889176017477
100.60437048668724
100.53948624434214
100.51660160178152
100.50890441427735
100.50642752724222
100.50567603887393
100.50551137695072
100.50567233084924
100.50641454147018
100.50886394072567
100.51648178708687
100.53914931855799
100.60347665964947
100.77667064189897
101.21647191045982
102.26312156669931
104.58203458057125
109.33363557403811
118.28387754023402
133.70670609593688
157.95103652916822
192.72190562899993
193.48553787593957
158.73006557766368
134.47549391681025
119.02808076614312
110.05101901319846
105.2780707744908
102.94533055855884
101.89104466713071
101.44750895113263
101.27266223685244
101.20766161125933
101.18473848619384
101.17702943428009
101.17454910038732
101.1737965968491
101.17363138989029
101.1737912312761
101.17452993175591
101.17696814573307
101.18455166084878
101.20711860766266
101.27116661554139
101.44363127255671
101.88166012588533
102.924354048164
105.23530111813422
109.972879334228
118.90200436470526
134.29821924913486
158.51467124741512
193.26124665569435
194.88224217460373
160.16142176331743
135.90690036977068
120.44199631056706
111.44644561600094
106.66097248543004
104.32185832740483
103.26477188776862
102.82014114957599
102.6449056847353
102.57977854512328
102.5568174855801
102.54909794742537
102.5466149380125
102.54586172731567
102.54569601118428
102.54585447249625
102.54658860056722
102.54901195766672
102.55654891205097
102.57897600418798
102.64262375356283
102.81400420752601
103.24927573730172
104.28545144691668
106.58228913607198
111.29244913747769
120.17673304482871
135.51269490370512
159.66552086085045
194.3591654494752
197.55891000221933
162.89592822545632
138.61762357174882
123.10487847884428
114.07038197561438
109.2659839363684
106.91877651575734
105.85863286704398
105.41296207338982
105.23740900314856
105.17219595350723
105.14921512493872
105.14149221073525
105.13900907367585
105.13825599840301
105.1380899619708
105.13824682318572
105.13897538849513
105.14138045819858
105.14885938822424
105.17110939456835
105.234240207542
105.40418478476379
105.83568363857678
106.86254845064582
109.1379653866592
113.80290266503702
122.60042204044152
137.8093855958022
161.81884817040063
196.4050482335504
202.31046784090057
167.68703204877013
143.3131215080539
127.66714293289748
118.5831551024246
113.75992752577689
111.40660478124767
110.34476110536725
109.89874268123582
109.72317433401784
109.65799436071553
109.63503701450911
109.62732546949388
109.62484704274367
109.6240956260417
109.62392964323098
109.62408474003544
109.62480691243151
109.627191010954
109.63460304014846
109.65664782106028
109.71917441866712
109.88742170043669
110.31438844082386
111.3297965224297
113.57790511791266
118.18135494217833
126.8502459318516
141.79054240036587
165.4980529589617
199.83637698342062
210.0412584043773
175.56594918182893
150.53134115251285
134.78302970369137
125.67082674611616
120.84504550443731
118.49381297957439
117.43397583199841
116.98913250052502
116.81412936510775
116.74919068228414
116.7263268973747
116.71864910381748
116.71618282669496
116.71543552255872
116.71526978245855
116.71542310681117
116.71613838052322
116.71849936536552
116.72583981020146
116.74766377246762
116.80954490352805
116.9759842989842
117.3981404066772
118.40140139844165
120.62041047494972
125.1576699661571
133.6785725223021
148.3097037811652
171.01723816215846
205.05268221354342
225.24994502794473
185.56076908111288
160.6399286711849
144.9176429574003
135.8558667280845
131.0610617984332
128.7263909732503
127.6744255650058
127.23298048198716
127.05935900933892
126.99494647099621
126.97225774727951
126.96464304525362
126.96220392679493
126.96145948541748
126.96129495594184
126.9614468062652
126.96215481257437
126.96449217325754
126.97175475484734
126.9933633051053
127.0545890622199
127.21925900720794
127.63679882624967
128.62873930882006
130.82165704413868
135.30202487843778
143.70704018850918
158.07472270512056
180.44203381938595
208.4426457828793
