# vtk DataFile Version 2.0
Unstructured Grid Example
ASCII
DATASET UNSTRUCTURED_GRID

POINTS 961 float
0.100000001 0.00499999989 0
0.0966666639 0.00499999989 0
0.0933333337 0.00499999989 0
0.0900000036 0.00499999989 0
0.086666666 0.00499999989 0
0.0833333358 0.00499999989 0
0.0799999982 0.00499999989 0
0.0766666681 0.00499999989 0
0.0733333305 0.00499999989 0
0.0700000003 0.00499999989 0
0.0666666701 0.00499999989 0
0.0633333325 0.00499999989 0
0.0599999987 0.00499999989 0
0.0566666685 0.00499999989 0
0.0533333346 0.00499999989 0
0.0500000007 0.00499999989 0
0.0466666669 0.00499999989 0
0.043333333 0.00499999989 0
0.0399999991 0.00499999989 0
0.0366666652 0.00499999989 0
0.0333333351 0.00499999989 0
0.0299999993 0.00499999989 0
0.0266666673 0.00499999989 0
0.0233333334 0.00499999989 0
0.0199999996 0.00499999989 0
0.0166666675 0.00499999989 0
0.0133333337 0.00499999989 0
0.00999999978 0.00499999989 0
0.00666666683 0.00499999989 0
0.00333333341 0.00499999989 0
0 0.00499999989 0
0.100000001 0.00166666671 0
0.0966666639 0.00166666671 0
0.0933333337 0.00166666671 0
0.0900000036 0.00166666671 0
0.086666666 0.00166666671 0
0.0833333358 0.00166666671 0
0.0799999982 0.00166666671 0
0.0766666681 0.00166666671 0
0.0733333305 0.00166666671 0
0.0700000003 0.00166666671 0
0.0666666701 0.00166666671 0
0.0633333325 0.00166666671 0
0.0599999987 0.00166666671 0
0.0566666685 0.00166666671 0
0.0533333346 0.00166666671 0
0.0500000007 0.00166666671 0
0.0466666669 0.00166666671 0
0.043333333 0.00166666671 0
0.0399999991 0.00166666671 0
0.0366666652 0.00166666671 0
0.0333333351 0.00166666671 0
0.0299999993 0.00166666671 0
0.0266666673 0.00166666671 0
0.0233333334 0.00166666671 0
0.0199999996 0.00166666671 0
0.0166666675 0.00166666671 0
0.0133333337 0.00166666671 0
0.00999999978 0.00166666671 0
0.00666666683 0.00166666671 0
0.00333333341 0.00166666671 0
0 0.00166666671 0
0.100000001 -0.00166666671 0
0.0966666639 -0.00166666671 0
0.0933333337 -0.00166666671 0
0.0900000036 -0.00166666671 0
0.086666666 -0.00166666671 0
0.0833333358 -0.00166666671 0
0.0799999982 -0.00166666671 0
0.0766666681 -0.00166666671 0
0.0733333305 -0.00166666671 0
0.0700000003 -0.00166666671 0
0.0666666701 -0.00166666671 0
0.0633333325 -0.00166666671 0
0.0599999987 -0.00166666671 0
0.0566666685 -0.00166666671 0
0.0533333346 -0.00166666671 0
0.0500000007 -0.00166666671 0
0.0466666669 -0.00166666671 0
0.043333333 -0.00166666671 0
0.0399999991 -0.00166666671 0
0.0366666652 -0.00166666671 0
0.0333333351 -0.00166666671 0
0.0299999993 -0.00166666671 0
0.0266666673 -0.00166666671 0
0.0233333334 -0.00166666671 0
0.0199999996 -0.00166666671 0
0.0166666675 -0.00166666671 0
0.0133333337 -0.00166666671 0
0.00999999978 -0.00166666671 0
0.00666666683 -0.00166666671 0
0.00333333341 -0.00166666671 0
0 -0.00166666671 0
0.100000001 -0.00499999989 0
0.0966666639 -0.00499999989 0
0.0933333337 -0.00499999989 0
0.0900000036 -0.00499999989 0
0.086666666 -0.00499999989 0
0.0833333358 -0.00499999989 0
0.0799999982 -0.00499999989 0
0.0766666681 -0.00499999989 0
0.0733333305 -0.00499999989 0
0.0700000003 -0.00499999989 0
0.0666666701 -0.00499999989 0
0.0633333325 -0.00499999989 0
0.0599999987 -0.00499999989 0
0.0566666685 -0.00499999989 0
0.0533333346 -0.00499999989 0
0.0500000007 -0.00499999989 0
0.0466666669 -0.00499999989 0
0.043333333 -0.00499999989 0
0.0399999991 -0.00499999989 0
0.0366666652 -0.00499999989 0
0.0333333351 -0.00499999989 0
0.0299999993 -0.00499999989 0
0.0266666673 -0.00499999989 0
0.0233333334 -0.00499999989 0
0.0199999996 -0.00499999989 0
0.0166666675 -0.00499999989 0
0.0133333337 -0.00499999989 0
0.00999999978 -0.00499999989 0
0.00666666683 -0.00499999989 0
0.00333333341 -0.00499999989 0
0 -0.00499999989 0
0.100000001 -0.00833333377 0
0.0966666639 -0.00833333377 0
0.0933333337 -0.00833333377 0
0.0900000036 -0.00833333377 0
0.086666666 -0.00833333377 0
0.0833333358 -0.00833333377 0
0.0799999982 -0.00833333377 0
0.0766666681 -0.00833333377 0
0.0733333305 -0.00833333377 0
0.0700000003 -0.00833333377 0
0.0666666701 -0.00833333377 0
0.0633333325 -0.00833333377 0
0.0599999987 -0.00833333377 0
0.0566666685 -0.00833333377 0
0.0533333346 -0.00833333377 0
0.0500000007 -0.00833333377 0
0.0466666669 -0.00833333377 0
0.043333333 -0.00833333377 0
0.0399999991 -0.00833333377 0
0.0366666652 -0.00833333377 0
0.0333333351 -0.00833333377 0
0.0299999993 -0.00833333377 0
0.0266666673 -0.00833333377 0
0.0233333334 -0.00833333377 0
0.0199999996 -0.00833333377 0
0.0166666675 -0.00833333377 0
0.0133333337 -0.00833333377 0
0.00999999978 -0.00833333377 0
0.00666666683 -0.00833333377 0
0.00333333341 -0.00833333377 0
0 -0.00833333377 0
0.100000001 -0.0116666667 0
0.0966666639 -0.0116666667 0
0.0933333337 -0.0116666667 0
0.0900000036 -0.0116666667 0
0.086666666 -0.0116666667 0
0.0833333358 -0.0116666667 0
0.0799999982 -0.0116666667 0
0.0766666681 -0.0116666667 0
0.0733333305 -0.0116666667 0
0.0700000003 -0.0116666667 0
0.0666666701 -0.0116666667 0
0.0633333325 -0.0116666667 0
0.0599999987 -0.0116666667 0
0.0566666685 -0.0116666667 0
0.0533333346 -0.0116666667 0
0.0500000007 -0.0116666667 0
0.0466666669 -0.0116666667 0
0.043333333 -0.0116666667 0
0.0399999991 -0.0116666667 0
0.0366666652 -0.0116666667 0
0.0333333351 -0.0116666667 0
0.0299999993 -0.0116666667 0
0.0266666673 -0.0116666667 0
0.0233333334 -0.0116666667 0
0.0199999996 -0.0116666667 0
0.0166666675 -0.0116666667 0
0.0133333337 -0.0116666667 0
0.00999999978 -0.0116666667 0
0.00666666683 -0.0116666667 0
0.00333333341 -0.0116666667 0
0 -0.0116666667 0
0.100000001 -0.0149999997 0
0.0966666639 -0.0149999997 0
0.0933333337 -0.0149999997 0
0.0900000036 -0.0149999997 0
0.086666666 -0.0149999997 0
0.0833333358 -0.0149999997 0
0.0799999982 -0.0149999997 0
0.0766666681 -0.0149999997 0
0.0733333305 -0.0149999997 0
0.0700000003 -0.0149999997 0
0.0666666701 -0.0149999997 0
0.0633333325 -0.0149999997 0
0.0599999987 -0.0149999997 0
0.0566666685 -0.0149999997 0
0.0533333346 -0.0149999997 0
0.0500000007 -0.0149999997 0
0.0466666669 -0.0149999997 0
0.043333333 -0.0149999997 0
0.0399999991 -0.0149999997 0
0.0366666652 -0.0149999997 0
0.0333333351 -0.0149999997 0
0.0299999993 -0.0149999997 0
0.0266666673 -0.0149999997 0
0.0233333334 -0.0149999997 0
0.0199999996 -0.0149999997 0
0.0166666675 -0.0149999997 0
0.0133333337 -0.0149999997 0
0.00999999978 -0.0149999997 0
0.00666666683 -0.0149999997 0
0.00333333341 -0.0149999997 0
0 -0.0149999997 0
0.100000001 -0.0183333326 0
0.0966666639 -0.0183333326 0
0.0933333337 -0.0183333326 0
0.0900000036 -0.0183333326 0
0.086666666 -0.0183333326 0
0.0833333358 -0.0183333326 0
0.0799999982 -0.0183333326 0
0.0766666681 -0.0183333326 0
0.0733333305 -0.0183333326 0
0.0700000003 -0.0183333326 0
0.0666666701 -0.0183333326 0
0.0633333325 -0.0183333326 0
0.0599999987 -0.0183333326 0
0.0566666685 -0.0183333326 0
0.0533333346 -0.0183333326 0
0.0500000007 -0.0183333326 0
0.0466666669 -0.0183333326 0
0.043333333 -0.0183333326 0
0.0399999991 -0.0183333326 0
0.0366666652 -0.0183333326 0
0.0333333351 -0.0183333326 0
0.0299999993 -0.0183333326 0
0.0266666673 -0.0183333326 0
0.0233333334 -0.0183333326 0
0.0199999996 -0.0183333326 0
0.0166666675 -0.0183333326 0
0.0133333337 -0.0183333326 0
0.00999999978 -0.0183333326 0
0.00666666683 -0.0183333326 0
0.00333333341 -0.0183333326 0
0 -0.0183333326 0
0.100000001 -0.0216666665 0
0.0966666639 -0.0216666665 0
0.0933333337 -0.0216666665 0
0.0900000036 -0.0216666665 0
0.086666666 -0.0216666665 0
0.0833333358 -0.0216666665 0
0.0799999982 -0.0216666665 0
0.0766666681 -0.0216666665 0
0.0733333305 -0.0216666665 0
0.0700000003 -0.0216666665 0
0.0666666701 -0.0216666665 0
0.0633333325 -0.0216666665 0
0.0599999987 -0.0216666665 0
0.0566666685 -0.0216666665 0
0.0533333346 -0.0216666665 0
0.0500000007 -0.0216666665 0
0.0466666669 -0.0216666665 0
0.043333333 -0.0216666665 0
0.0399999991 -0.0216666665 0
0.0366666652 -0.0216666665 0
0.0333333351 -0.0216666665 0
0.0299999993 -0.0216666665 0
0.0266666673 -0.0216666665 0
0.0233333334 -0.0216666665 0
0.0199999996 -0.0216666665 0
0.0166666675 -0.0216666665 0
0.0133333337 -0.0216666665 0
0.00999999978 -0.0216666665 0
0.00666666683 -0.0216666665 0
0.00333333341 -0.0216666665 0
0 -0.0216666665 0
0.100000001 -0.0250000004 0
0.0966666639 -0.0250000004 0
0.0933333337 -0.0250000004 0
0.0900000036 -0.0250000004 0
0.086666666 -0.0250000004 0
0.0833333358 -0.0250000004 0
0.0799999982 -0.0250000004 0
0.0766666681 -0.0250000004 0
0.0733333305 -0.0250000004 0
0.0700000003 -0.0250000004 0
0.0666666701 -0.0250000004 0
0.0633333325 -0.0250000004 0
0.0599999987 -0.0250000004 0
0.0566666685 -0.0250000004 0
0.0533333346 -0.0250000004 0
0.0500000007 -0.0250000004 0
0.0466666669 -0.0250000004 0
0.043333333 -0.0250000004 0
0.0399999991 -0.0250000004 0
0.0366666652 -0.0250000004 0
0.0333333351 -0.0250000004 0
0.0299999993 -0.0250000004 0
0.0266666673 -0.0250000004 0
0.0233333334 -0.0250000004 0
0.0199999996 -0.0250000004 0
0.0166666675 -0.0250000004 0
0.0133333337 -0.0250000004 0
0.00999999978 -0.0250000004 0
0.00666666683 -0.0250000004 0
0.00333333341 -0.0250000004 0
0 -0.0250000004 0
0.100000001 -0.0283333343 0
0.0966666639 -0.0283333343 0
0.0933333337 -0.0283333343 0
0.0900000036 -0.0283333343 0
0.086666666 -0.0283333343 0
0.0833333358 -0.0283333343 0
0.0799999982 -0.0283333343 0
0.0766666681 -0.0283333343 0
0.0733333305 -0.0283333343 0
0.0700000003 -0.0283333343 0
0.0666666701 -0.0283333343 0
0.0633333325 -0.0283333343 0
0.0599999987 -0.0283333343 0
0.0566666685 -0.0283333343 0
0.0533333346 -0.0283333343 0
0.0500000007 -0.0283333343 0
0.0466666669 -0.0283333343 0
0.043333333 -0.0283333343 0
0.0399999991 -0.0283333343 0
0.0366666652 -0.0283333343 0
0.0333333351 -0.0283333343 0
0.0299999993 -0.0283333343 0
0.0266666673 -0.0283333343 0
0.0233333334 -0.0283333343 0
0.0199999996 -0.0283333343 0
0.0166666675 -0.0283333343 0
0.0133333337 -0.0283333343 0
0.00999999978 -0.0283333343 0
0.00666666683 -0.0283333343 0
0.00333333341 -0.0283333343 0
0 -0.0283333343 0
0.100000001 -0.0316666663 0
[...]
POINT_DATA 961
SCALARS Temp float 1
LOOKUP_TABLE default
284.64132821478773
252.7955091126265
230.10364359132285
215.2314336901217
206.27289075263644
201.30505719523416
198.7602100304078
197.55037187394842
197.0137526121944
196.79045600081992
196.70280328148078
196.67017533250294
196.65860358021627
196.65468358349185
196.65343714712012
196.653156321996
196.65343714656498
196.65468358155894
196.65860358188817
196.6701753379117
196.70280317201926
196.7904559403911
197.01375264621984
197.5503710160362
198.76020997645966
201.30505095089384
206.2728855830165
215.23141097580032
230.10362176110937
252.79551104684865
284.6412833343773
252.79559643756681
219.8411743338537
196.35808294746758
180.9661742273281
171.6937343769152
166.55129313360024
163.91669768281238
162.6640410879774
162.10836124429326
161.87710467334662
161.78631636048058
161.7525172442957
161.740528776267
161.73646718084967
161.7351755968241
161.73488458090205
161.7351755962427
161.7364671788243
161.74052877792295
161.75251724965062
161.78631624631726
161.87710460840165
162.1083612726705
162.66404018050466
163.91669757560504
166.55128653557009
171.69372868794548
180.96614978985073
196.35805825955117
219.84115851811393
252.79551467951833
230.10372547389355
196.3580860650177
172.30777723030434
156.5410544899818
147.04055612199775
141.77018285442097
139.06922646052016
137.784605835001
137.2145590405662
136.97724493654746
136.88404809811323
136.84934128469337
136.83702708052033
136.83285391103047
136.83152649823546
136.83122735606975
136.83152649762087
136.83285390888602
136.83702708200877
136.84934128950394
136.8840479787556
136.97724486344342
137.21455905110435
137.78460485297924
139.06922621506618
141.7701757466299
147.04054943577202
156.5410273834918
172.30774615471088
196.35805816065215
230.10362479333529
215.23152010851135
180.9661837352691
156.54106240047153
140.52465201221403
130.87071331834957
125.51328309104103
122.76660818227525
121.45968114296171
120.8794767920632
120.63782444830709
120.54288096995454
120.50750795624135
120.49495194082053
120.49069505646906
120.48934050619141
120.4890351699378
120.4893405055394
120.49069505418977
120.49495194203335
120.50750796016808
120.54288084532689
120.63782436496119
120.87947677764431
121.45968007585769
122.76660775853306
125.51327543874223
130.87070553515625
140.52462225739126
156.54102656818367
180.96614881527603
215.23141106887903
206.27300139861873
171.69376739913952
147.0405879546825
130.87073763139463
121.12134854351824
115.70899901232275
112.93303889069523
111.61159277295006
111.0246685377481
110.78009950177383
110.68396313455176
110.6481282195504
110.63540213018065
110.63108557288021
110.62971144853721
110.62940160907208
110.62971144784711
110.63108557046466
110.63540213106899
110.64812822245464
110.68396300508498
110.78009940802781
111.02466849734388
111.61159162640355
112.93303829658744
115.70899089773526
121.12133986250174
130.87070602218282
147.04054924114402
171.69372886745265
206.2728881228292
201.3051750006825
166.55132898138362
141.77021701494476
125.51330973934124
115.70900129283957
110.26453732846102
107.47114539798328
106.14089324131261
105.54981433505822
105.30340715505572
105.20650479540926
105.17036787402935
105.15752865606066
105.15317176153033
105.15178421618377
105.15147125968956
105.15178421545869
105.15317175899062
105.15752865663137
105.17036787595629
105.2065046619335
105.30340705231148
105.549814272357
106.14089203186165
107.47114467153952
110.26452888730714
115.70899202264766
125.51327703471448
141.77017675889758
166.5512886488488
201.30505964920178
198.76033359935954
163.91673937543302
139.06926691693866
122.7666414906871
112.93304797706948
107.47115229382827
104.66811023450656
103.33287979577545
102.73940075414168
102.49190830866107
102.39454388311344
102.35822095059547
102.34531065232784
102.3409279343237
102.33953165369095
102.33921664601006
102.33953165293617
102.34092793168085
102.34531065262698
102.35822095171069
102.39454374663575
102.4919081991115
102.73940067501611
103.33287854313318
104.6681094207277
107.47114365462915
112.93303837314552
122.76660821070851
139.06922589893185
163.91669819508064
198.7602172757415
197.5504884820603
162.66408028314564
137.78464534140932
121.45971403805436
111.61160161910942
106.14089997390221
103.33287964441138
101.995022411639
101.4002467792166
101.15215386658424
101.05452762869805
101.0180968190634
101.00514436340244
101.0007460020533
100.99934432976367
100.99902804023561
100.99934432898505
101.00074599932998
101.00514436349049
101.0180968195736
101.05452749017289
101.15215375245135
101.40024668944787
101.99502113279921
103.33287878021348
106.14089122821015
111.61159184602106
121.4596804817558
137.78460397350094
162.66403872646654
197.55037172791543
197.01386317608373
162.10839932417616
137.21459888524575
120.87951046010775
111.02467831893257
105.54982207813578
102.739401638382
101.40024782454178
100.80481611831026
100.55641152475742
100.45864586178067
100.42215613154556
100.40918007748478
100.40477275270743
100.40336792648806
100.40305087680437
100.40336792568836
100.4047727499191
100.40918007741044
100.42215613162551
100.45864572194358
100.55641140778991
100.80481602229368
101.40024653133118
102.73940074795479
105.5498132803501
111.02466846717846
120.87947678059545
137.2145573666666
162.10835760970446
197.01374624151742
196.79056681794984
161.8771429698828
136.97728449696967
120.63785781779127
110.78010902005443
105.30341466571308
102.4919089726863
101.15215469676578
100.55641130987603
100.30785467162313
100.21001913777432
100.17349907648575
100.16051055038879
100.15609836751601
100.15469179320017
100.15437431593014
100.1546917923732
100.156098364654
100.16051055015154
100.17349907619891
100.2100189970173
100.30785455282539
100.55641121017821
101.152153395864
102.49190806911078
105.30340584355106
110.7800991332567
120.63782408558852
136.97724291588275
161.87710119133288
196.7904498103129
196.70292471812297
161.78635613388875
136.8840878188395
120.5429142511914
110.68397252518294
105.20651217518635
102.39454441458531
101.05452832506016
100.45864551139857
100.2100190013575
100.11215045719683
100.07561566036624
100.0626209052405
100.05820623052809
100.05679873801355
100.05648103260698
100.05679873712599
100.0582062275163
100.06262090470214
100.07561565950395
100.11215031532682
100.21001888062415
100.45864540838579
101.05452701841088
102.39454350220059
105.20650333882547
110.68396261931545
120.54288049252362
136.88404620738052
161.7863143244987
196.70280767628992
196.67029699196598
161.75255673697404
136.84938063167985
120.50754081211313
110.64813714482825
105.17037475643153
102.35822096351193
101.01809698458256
100.4221552432147
100.17349839828007
100.07561511674503
100.0390735511862
100.02607585206468
100.02165996656997
100.02025201669993
100.01993419575982
100.02025201564102
100.02165996313839
100.02607585069086
100.03907354878399
100.07561497216719
100.17349827308325
100.4221551331824
101.01809566731991
102.35822003613742
105.17036589944064
110.64812721290404
120.5075070213943
136.8493389843568
161.7525148903918
196.67017991195985
196.658712782121
161.74056489198452
136.83706420604176
120.4949827101547
110.63540887284705
105.15753326683523
102.34530833548114
101.00514216477491
100.40917680498174
100.16050747646007
100.06261795938696
100.02607344668283
100.01307442803079
100.00865798418842
100.00724981791255
100.00693194126927
100.00724981635295
100.0086579795113
100.01307442412552
100.02607343953233
100.06261780641141
100.16050733725179
100.40917667283024
101.00514081444258
102.34530736145764
105.15752434743173
110.63539886232883
120.49494882563128
136.83702245357617
161.74052293460113
196.65859559172097
196.6547848683946
161.73649546991197
136.8328838212095
120.49071818174096
110.63108432866046
105.15316815790834
102.34091726051703
101.00073535776167
100.40476097946116
100.15608675910677
100.0581947301105
100.02164899533734
100.00864941303647
100.0042327235206
100.00282445933296
100.00250655671785
100.00282445635429
100.00423271523279
100.00864940158331
100.02164897361723
100.05819455068884
100.15608657464642
100.40476077427529
101.00073389625318
102.34091612696592
105.15315902265135
110.63107404304041
120.4906839669019
136.8328416957594
161.73645311696865
196.65466728471617
196.6535176365255
161.73518178244018
136.83153068914814
120.48933639370405
110.62968208133857
105.15175192631392
102.33949191914076
100.99930437533658
100.40332668051649
100.1546506098051
100.05675760114521
100.02021137401208
100.00721155680094
100.00279476127136
100.00138645319866
100.00106853784737
100.00138644637202
100.00279474294643
100.00721152369664
100.02021130913126
100.05675734093835
100.15465028309318
100.40332623969967
100.99930254678598
102.33949024811685
105.15174205136732
110.62967083943066
120.48930101810367
136.83148724225939
161.73513802083806
196.65339865043052
196.65317388850804
161.73480619003527
136.83114130474678
120.48893762879011
110.62927668286517
105.15134188125631
102.3390787304604
100.99888914981024
100.40291019617113
100.15423338519909
100.05633996299882
100.0197935166407
100.00679358923664
100.00237674128141
100.00096840985681
100.0006504855061
100.0009683931133
100.00237669637617
100.00679349681955
100.01979332932618
100.05633946581622
100.15423262793529
100.40290902148196
100.99888614846222
102.33907530305324
105.15132954237869
110.62926220470509
120.48889827598967
136.831093289273
161.73475753150032
196.6530500182428
196.6531740450756
161.73480603530328
136.83114025777098
120.48893526839824
110.62927281054459
105.15133651384774
102.33907204789824
100.99888141977124
100.4029017040215
100.15422438357861
100.05633064709839
100.01978402117683
100.00678399835327
100.00236710283535
100.00095874841365
100.00064081147843
100.00095870748649
100.002366991193
100.00678375152593
100.01978350299136
100.05632948588614
100.15422237806524
100.40289833397259
100.99887480959815
102.33906307995348
105.1513162353401
110.62924771902583
120.48888269081719
136.83107689854486
161.7347408297199
196.65303363676668
196.6535073210132
161.73516959893175
136.83151397011906
120.48931327257624
110.62965174268612
105.15171457859465
102.33944850847696
100.99925622437704
100.40327515001984
100.15459686912524
100.05670252838902
100.0201555583245
100.00715535592049
100.00273837313387
100.00132997689445
100.00101201464861
100.00132988039316
100.00273810333827
100.00715472894197
100.02015419258967
100.05669959881978
100.15459141430628
100.40326550169694
100.99923896725385
102.3394227377102
105.1516696440142
110.62959303802653
120.4892181585743
136.83140070359377
161.73505020354764
196.65331262642664
196.65469792956628
161.73640013929167
136.83277143441973
120.49058276249147
110.63092376429326
105.15298374798545
102.3407127404536
101.00051554753739
100.4045305975883
100.15584968912539
100.05795376866443
100.02140594149964
100.00840531406745
100.00398813535615
100.00257964992808
100.0022616347476
100.00257943355469
100.00398751338756
100.00840380641625
100.02140252895775
100.05794638833272
100.15583519946792
100.40450387573907
101.00046832333484
102.34063820299204
105.15286533085083
110.63076264658216
120.49035577066569
136.83250147222424
161.7361092863111
196.65433102079874
196.6582572687294
161.74007644802595
136.83651435040622
120.49435478077724
110.63469791090353
105.15674568025274
102.34445800135158
101.00424564675696
100.40824947045729
100.15956137759738
100.06166137347896
100.02511145083724
100.01210984037301
100.00769223298042
100.00628356309423
100.00596544274109
100.00628310491383
100.0076908773093
100.0121064226751
100.025103404696
100.06164347023767
100.15952459475838
100.40817886330566
101.00411841485288
102.34424872997042
105.15641809603169
110.63423790797113
120.49373522874377
136.83577120764951
161.73926327459534
196.65736416440745
196.66835194020334
161.75047891256133
136.8470975544228
120.5050030718652
110.6453364021124
105.16733844465068
102.35499795602831
101.01474143481617
100.41871465960169
100.17000815572551
100.07209829644232
100.03554360568502
100.02253988292023
100.01812140439107
100.01671237984412
100.01639406492859
100.01671146704103
100.01811862450678
100.02253260631471
100.03552578417553
100.07205717540798
100.16991991303347
100.41853817606982
101.01441293161785
102.35443651363977
105.16644537571105
110.64404504357191
120.5032665941036
136.84498570241004
161.74813955236797
196.66591602391415
196.6955214446663
161.77853046310105
136.8755974048722
120.53362872772189
110.67389067420208
105.19574000121814
102.38324458785591
101.0428685565085
100.44676453740372
100.19801452146709
100.10008281165514
100.06351817944012
100.05051030260134
100.04609020362959
100.0446805536017
100.0443619060869
100.0446788467015
100.04608485802568
100.05049579899088
100.0634812525653
100.0999942137894
100.19781600484897
100.4463502153375
101.0420667076394
102.38181864667098
105.19340447761677
110.67040809571684
120.52887001104966
136.8697101495493
161.77193136853927
196.6887620324868
196.76512440022017
161.85030021662374
136.9483959156091
120.60660273412904
110.74655991683866
105.26794709230104
102.45503298837866
101.11435954154398
100.51807711435089
100.26923348994285
100.17125784444833
100.13467444822253
100.12165917989051
100.11723635260655
100.11582570169901
100.11550653216531
100.11582271027139
100.11722673395302
100.12163218926509
100.1346031299649
100.1710799067091
100.26881741853977
100.51716985170853
101.11252667887106
102.45163161124725
105.26216734659175
110.73764178971943
120.59411143298223
136.93262618536917
161.83239317430787
196.74683253817778
196.93336903560072
162.0236430584286
137.12387017477218
120.78209549385781
110.92100416333376
105.44112021995296
102.62717299666136
101.28582803241228
100.68917444121284
100.44015044368831
100.34209587949215
100.30548088125002
100.2924538829403
100.28802695967269
100.28661487762139
100.28629496220147
100.2866099688005
100.28801078921022
100.29240708459298
100.30535287989566
100.34176434312191
100.43934266514312
100.68733427548555
101.28193841311689
102.61961578128906
105.42771804114315
110.89950107368905
120.75102039096755
137.08368120982726
161.9773094521994
196.88591536712192
197.3153274564451
162.4167741333461
137.5208505365741
121.17803774055949
111.31382551079308
105.83077815039941
103.01453931812168
101.67184597423848
101.0745122826813
100.82518338654224
100.727004741127
100.69034323726248
100.67730001232647
100.67286774635514
100.67145388577352
100.67113301317612
100.67144634760429
100.67284237267934
100.67722452739122
100.69013023985808
100.72643374408088
100.82373781936991
101.07107783650726
101.66424878683303
102.99904498645759
105.80194352668417
111.26541280082589
121.10534305899769
137.42401568515797
162.30304031678924
197.1982041407309
198.1257209253557
163.2496961358916
138.3591692868234
122.0113873928681
112.13893628549002
106.64887852024744
103.82818477938636
102.48316481079637
101.88476674677297
101.63499967506434
101.53665595286209
101.49993693665289
101.48687504057125
101.48243706010553
101.48102139929891
101.480699451458
101.48101056929694
101.48239992231551
101.4867618968169
101.49960889018566
101.53574939198212
101.6326245028143
101.87890205661012
102.46961813848083
103.79918491624449
106.59197360935812
112.03819611214445
121.85271402692837
138.13973016956288
162.9856539480985
197.851667004166
199.72568243525168
164.8905932943414
140.00305168228525
123.63834778386241
113.74677214272633
108.24325281453851
105.41541491849162
104.06711030957332
103.46736409356957
103.21709396342462
103.11857824166286
103.08180517536374
103.06872769394418
103.06428558328732
103.0628687502582
103.06254580653014
103.06285419405931
103.06423490128542
103.06857021646455
103.08133811820856
103.11725398689578
103.21352148751127
103.4582430081134
104.04521270160488
105.36637225686928
108.14180334050691
113.55564008883633
123.31862839653643
139.53752943818736
164.3117710805118
199.11756152081296
202.65674549731352
167.8875365697124
142.98037725984597
126.56913884405708
116.63840526376016
111.11527749049002
108.2787649966144
106.92705972913504
106.32611391239693
106.07546635477216
105.97684729851366
105.94005134637317
105.92697089015219
105.92252934663169
105.92111295024321
105.92078938919093
105.92109464091902
105.92246487121213
105.92676746891576
105.93943716371588
105.97507003137636
106.07055816536705
106.31323788215387
106.89514446064115
108.2044880676927
110.95412565522417
116.3159792538578
125.98309992709505
142.0643889546981
166.68462230822354
201.37362424515695
207.662895134112
172.94214913426543
147.9452109029701
131.40397288964124
121.42497078730771
115.88346263310014
113.04105367937044
111.68780590541975
111.086631630254
110.83604836176721
110.73750840861516
110.70075942644655
110.68770112297375
110.6832687854875
110.68185564863103
110.68153220903262
110.6818340676337
110.68319231731785
110.68745739765848
110.70001395001458
110.73531922869782
110.82989849767186
111.07017339404656
111.64603086784383
112.94095184403648
115.65807123906488
120.95036410124646
130.4780654118291
146.27872900424265
170.58547058939894
205.01710812021997
215.56784989624958
181.0025570782295
155.35538744475275
138.71755052765081
128.7143212706101
123.17300218854298
120.33449020125559
118.984351343192
118.38496793260053
118.13526453785019
118.03711371849757
118.00052263459851
117.98752420456103
117.98311394423965
117.98170833536149
117.98138574043823
117.98168420487154
117.9830295033877
117.98725347815468
117.99968830237741
118.03464055210154
118.12824642578454
118.36595476088759
118.9353812795592
120.21500050645635
122.8975079675047
128.1151369838124
137.4837344155933
152.96335694211157
176.26300893938867
210.38422213281464
230.77225732034435
191.02806318639023
165.5020305169183
148.89896839784575
138.9539773245156
133.44969409997495
130.63181741406098
129.29196996139308
128.69727479644018
128.4495787343898
128.35223339920054
128.31593335268602
128.3030431481001
128.29867658646884
128.2972794448158
128.2969593167158
128.2972547691185
128.29858645554017
128.30276793276968
128.31507270347333
128.34967323417783
128.4422894241222
128.67746454612058
129.24066671047106
130.5058845944469
133.15701457736446
138.30979915045972
147.55232967863265
162.75821849476992
185.70974112731574
213.8237786991964
