# vtk DataFile Version 2.0
Unstructured Grid Example
ASCII
DATASET UNSTRUCTURED_GRID

POINTS 961 float
0.100000001 0.00499999989 0
0.0966666639 0.00499999989 0
0.0933333337 0.00499999989 0
0.0900000036 0.00499999989 0
0.086666666 0.00499999989 0
0.0833333358 0.00499999989 0
0.0799999982 0.00499999989 0
0.0766666681 0.00499999989 0
0.0733333305 0.00499999989 0
0.0700000003 0.00499999989 0
0.0666666701 0.00499999989 0
0.0633333325 0.00499999989 0
0.0599999987 0.00499999989 0
0.0566666685 0.00499999989 0
0.0533333346 0.00499999989 0
0.0500000007 0.00499999989 0
0.0466666669 0.00499999989 0
0.043333333 0.00499999989 0
0.0399999991 0.00499999989 0
0.0366666652 0.00499999989 0
0.0333333351 0.00499999989 0
0.0299999993 0.00499999989 0
0.0266666673 0.00499999989 0
0.0233333334 0.00499999989 0
0.0199999996 0.00499999989 0
0.0166666675 0.00499999989 0
0.0133333337 0.00499999989 0
0.00999999978 0.00499999989 0
0.00666666683 0.00499999989 0
0.00333333341 0.00499999989 0
0 0.00499999989 0
0.100000001 0.00166666671 0
0.0966666639 0.00166666671 0
0.0933333337 0.00166666671 0
0.0900000036 0.00166666671 0
0.086666666 0.00166666671 0
0.0833333358 0.00166666671 0
0.0799999982 0.00166666671 0
0.0766666681 0.00166666671 0
0.0733333305 0.00166666671 0
0.0700000003 0.00166666671 0
0.0666666701 0.00166666671 0
0.0633333325 0.00166666671 0
0.0599999987 0.00166666671 0
0.0566666685 0.00166666671 0
0.0533333346 0.00166666671 0
0.0500000007 0.00166666671 0
0.0466666669 0.00166666671 0
0.043333333 0.00166666671 0
0.0399999991 0.00166666671 0
0.0366666652 0.00166666671 0
0.0333333351 0.00166666671 0
0.0299999993 0.00166666671 0
0.0266666673 0.00166666671 0
0.0233333334 0.00166666671 0
0.0199999996 0.00166666671 0
0.0166666675 0.00166666671 0
0.0133333337 0.00166666671 0
0.00999999978 0.00166666671 0
0.00666666683 0.00166666671 0
0.00333333341 0.00166666671 0
0 0.00166666671 0
0.100000001 -0.00166666671 0
0.0966666639 -0.00166666671 0
0.0933333337 -0.00166666671 0
0.0900000036 -0.00166666671 0
0.086666666 -0.00166666671 0
0.0833333358 -0.00166666671 0
0.0799999982 -0.00166666671 0
0.0766666681 -0.00166666671 0
0.0733333305 -0.00166666671 0
0.0700000003 -0.00166666671 0
0.0666666701 -0.00166666671 0
0.0633333325 -0.00166666671 0
0.0599999987 -0.00166666671 0
0.0566666685 -0.00166666671 0
0.0533333346 -0.00166666671 0
0.0500000007 -0.00166666671 0
0.0466666669 -0.00166666671 0
0.043333333 -0.00166666671 0
0.0399999991 -0.00166666671 0
0.0366666652 -0.00166666671 0
0.0333333351 -0.00166666671 0
0.0299999993 -0.00166666671 0
0.0266666673 -0.00166666671 0
0.0233333334 -0.00166666671 0
0.0199999996 -0.00166666671 0
0.0166666675 -0.00166666671 0
0.0133333337 -0.00166666671 0
0.00999999978 -0.00166666671 0
0.00666666683 -0.00166666671 0
0.00333333341 -0.00166666671 0
0 -0.00166666671 0
0.100000001 -0.00499999989 0
0.0966666639 -0.00499999989 0
0.0933333337 -0.00499999989 0
0.0900000036 -0.00499999989 0
0.086666666 -0.00499999989 0
0.0833333358 -0.00499999989 0
0.0799999982 -0.00499999989 0
0.0766666681 -0.00499999989 0
0.0733333305 -0.00499999989 0
0.0700000003 -0.00499999989 0
0.0666666701 -0.00499999989 0
0.0633333325 -0.00499999989 0
0.0599999987 -0.00499999989 0
0.0566666685 -0.00499999989 0
0.0533333346 -0.00499999989 0
0.0500000007 -0.00499999989 0
0.0466666669 -0.00499999989 0
0.043333333 -0.00499999989 0
0.0399999991 -0.00499999989 0
0.0366666652 -0.00499999989 0
0.0333333351 -0.00499999989 0
0.0299999993 -0.00499999989 0
0.0266666673 -0.00499999989 0
0.0233333334 -0.00499999989 0
0.0199999996 -0.00499999989 0
0.0166666675 -0.00499999989 0
0.0133333337 -0.00499999989 0
0.00999999978 -0.00499999989 0
0.00666666683 -0.00499999989 0
0.00333333341 -0.00499999989 0
0 -0.00499999989 0
0.100000001 -0.00833333377 0
0.0966666639 -0.00833333377 0
0.0933333337 -0.00833333377 0
0.0900000036 -0.00833333377 0
0.086666666 -0.00833333377 0
0.0833333358 -0.00833333377 0
0.0799999982 -0.00833333377 0
0.0766666681 -0.00833333377 0
0.0733333305 -0.00833333377 0
0.0700000003 -0.00833333377 0
0.0666666701 -0.00833333377 0
0.0633333325 -0.00833333377 0
0.0599999987 -0.00833333377 0
0.0566666685 -0.00833333377 0
0.0533333346 -0.00833333377 0
0.0500000007 -0.00833333377 0
0.0466666669 -0.00833333377 0
0.043333333 -0.00833333377 0
0.0399999991 -0.00833333377 0
0.0366666652 -0.00833333377 0
0.0333333351 -0.00833333377 0
0.0299999993 -0.00833333377 0
0.0266666673 -0.00833333377 0
0.0233333334 -0.00833333377 0
0.0199999996 -0.00833333377 0
0.0166666675 -0.00833333377 0
0.0133333337 -0.00833333377 0
0.00999999978 -0.00833333377 0
0.00666666683 -0.00833333377 0
0.00333333341 -0.00833333377 0
0 -0.00833333377 0
0.100000001 -0.0116666667 0
0.0966666639 -0.0116666667 0
0.0933333337 -0.0116666667 0
0.0900000036 -0.0116666667 0
0.086666666 -0.0116666667 0
0.0833333358 -0.0116666667 0
0.0799999982 -0.0116666667 0
0.0766666681 -0.0116666667 0
0.0733333305 -0.0116666667 0
0.0700000003 -0.0116666667 0
0.0666666701 -0.0116666667 0
0.0633333325 -0.0116666667 0
0.0599999987 -0.0116666667 0
0.0566666685 -0.0116666667 0
0.0533333346 -0.0116666667 0
0.0500000007 -0.0116666667 0
0.0466666669 -0.0116666667 0
0.043333333 -0.0116666667 0
0.0399999991 -0.0116666667 0
0.0366666652 -0.0116666667 0
0.0333333351 -0.0116666667 0
0.0299999993 -0.0116666667 0
0.0266666673 -0.0116666667 0
0.0233333334 -0.0116666667 0
0.0199999996 -0.0116666667 0
0.0166666675 -0.0116666667 0
0.0133333337 -0.0116666667 0
0.00999999978 -0.0116666667 0
0.00666666683 -0.0116666667 0
0.00333333341 -0.0116666667 0
0 -0.0116666667 0
0.100000001 -0.0149999997 0
0.0966666639 -0.0149999997 0
0.0933333337 -0.0149999997 0
0.0900000036 -0.0149999997 0
0.086666666 -0.0149999997 0
0.0833333358 -0.0149999997 0
0.0799999982 -0.0149999997 0
0.0766666681 -0.0149999997 0
0.0733333305 -0.0149999997 0
0.0700000003 -0.0149999997 0
0.0666666701 -0.0149999997 0
0.0633333325 -0.0149999997 0
0.0599999987 -0.0149999997 0
0.0566666685 -0.0149999997 0
0.0533333346 -0.0149999997 0
0.0500000007 -0.0149999997 0
0.0466666669 -0.0149999997 0
0.043333333 -0.0149999997 0
0.0399999991 -0.0149999997 0
0.0366666652 -0.0149999997 0
0.0333333351 -0.0149999997 0
0.0299999993 -0.0149999997 0
0.0266666673 -0.0149999997 0
0.0233333334 -0.0149999997 0
0.0199999996 -0.0149999997 0
0.0166666675 -0.0149999997 0
0.0133333337 -0.0149999997 0
0.00999999978 -0.0149999997 0
0.00666666683 -0.0149999997 0
0.00333333341 -0.0149999997 0
0 -0.0149999997 0
0.100000001 -0.0183333326 0
0.0966666639 -0.0183333326 0
0.0933333337 -0.0183333326 0
0.0900000036 -0.0183333326 0
0.086666666 -0.0183333326 0
0.0833333358 -0.0183333326 0
0.0799999982 -0.0183333326 0
0.0766666681 -0.0183333326 0
0.0733333305 -0.0183333326 0
0.0700000003 -0.0183333326 0
0.0666666701 -0.0183333326 0
0.0633333325 -0.0183333326 0
0.0599999987 -0.0183333326 0
0.0566666685 -0.0183333326 0
0.0533333346 -0.0183333326 0
0.0500000007 -0.0183333326 0
0.0466666669 -0.0183333326 0
0.043333333 -0.0183333326 0
0.0399999991 -0.0183333326 0
0.0366666652 -0.0183333326 0
0.0333333351 -0.0183333326 0
0.0299999993 -0.0183333326 0
0.0266666673 -0.0183333326 0
0.0233333334 -0.0183333326 0
0.0199999996 -0.0183333326 0
0.0166666675 -0.0183333326 0
0.0133333337 -0.0183333326 0
0.00999999978 -0.0183333326 0
0.00666666683 -0.0183333326 0
0.00333333341 -0.0183333326 0
0 -0.0183333326 0
0.100000001 -0.0216666665 0
0.0966666639 -0.0216666665 0
0.0933333337 -0.0216666665 0
0.0900000036 -0.0216666665 0
0.086666666 -0.0216666665 0
0.0833333358 -0.0216666665 0
0.0799999982 -0.0216666665 0
0.0766666681 -0.0216666665 0
0.0733333305 -0.0216666665 0
0.0700000003 -0.0216666665 0
0.0666666701 -0.0216666665 0
0.0633333325 -0.0216666665 0
0.0599999987 -0.0216666665 0
0.0566666685 -0.0216666665 0
0.0533333346 -0.0216666665 0
0.0500000007 -0.0216666665 0
0.0466666669 -0.0216666665 0
0.043333333 -0.0216666665 0
0.0399999991 -0.0216666665 0
0.0366666652 -0.0216666665 0
0.0333333351 -0.0216666665 0
0.0299999993 -0.0216666665 0
0.0266666673 -0.0216666665 0
0.0233333334 -0.0216666665 0
0.0199999996 -0.0216666665 0
0.0166666675 -0.0216666665 0
0.0133333337 -0.0216666665 0
0.00999999978 -0.0216666665 0
0.00666666683 -0.0216666665 0
0.00333333341 -0.0216666665 0
0 -0.0216666665 0
0.100000001 -0.0250000004 0
0.0966666639 -0.0250000004 0
0.0933333337 -0.0250000004 0
0.0900000036 -0.0250000004 0
0.086666666 -0.0250000004 0
0.0833333358 -0.0250000004 0
0.0799999982 -0.0250000004 0
0.0766666681 -0.0250000004 0
0.0733333305 -0.0250000004 0
0.0700000003 -0.0250000004 0
0.0666666701 -0.0250000004 0
0.0633333325 -0.0250000004 0
0.0599999987 -0.0250000004 0
0.0566666685 -0.0250000004 0
0.0533333346 -0.0250000004 0
0.0500000007 -0.0250000004 0
0.0466666669 -0.0250000004 0
0.043333333 -0.0250000004 0
0.0399999991 -0.0250000004 0
0.0366666652 -0.0250000004 0
0.0333333351 -0.0250000004 0
0.0299999993 -0.0250000004 0
0.0266666673 -0.0250000004 0
0.0233333334 -0.0250000004 0
0.0199999996 -0.0250000004 0
0.0166666675 -0.0250000004 0
0.0133333337 -0.0250000004 0
0.00999999978 -0.0250000004 0
0.00666666683 -0.0250000004 0
0.00333333341 -0.0250000004 0
0 -0.0250000004 0
0.100000001 -0.0283333343 0
0.0966666639 -0.0283333343 0
0.0933333337 -0.0283333343 0
0.0900000036 -0.0283333343 0
0.086666666 -0.0283333343 0
0.0833333358 -0.0283333343 0
0.0799999982 -0.0283333343 0
0.0766666681 -0.0283333343 0
0.0733333305 -0.0283333343 0
0.0700000003 -0.0283333343 0
0.0666666701 -0.0283333343 0
0.0633333325 -0.0283333343 0
0.0599999987 -0.0283333343 0
0.0566666685 -0.0283333343 0
0.0533333346 -0.0283333343 0
0.0500000007 -0.0283333343 0
0.0466666669 -0.0283333343 0
0.043333333 -0.0283333343 0
0.0399999991 -0.0283333343 0
0.0366666652 -0.0283333343 0
0.0333333351 -0.0283333343 0
0.0299999993 -0.0283333343 0
0.0266666673 -0.0283333343 0
0.0233333334 -0.0283333343 0
0.0199999996 -0.0283333343 0
0.0166666675 -0.0283333343 0
0.0133333337 -0.0283333343 0
0.00999999978 -0.0283333343 0
0.00666666683 -0.0283333343 0
0.00333333341 -0.0283333343 0
0 -0.0283333343 0
0.100000001 -0.0316666663 0
[...]
POINT_DATA 961
SCALARS Temp float 1
LOOKUP_TABLE default
300.20314331943973
267.5932209249887
243.2269603837553
226.46995912290637
215.76845830286237
209.4202912290726
205.914986977547
204.10795411204927
203.2350535445854
202.83834293405334
202.66800059989723
202.5986063998161
202.57168427297643
202.56172245521822
202.55826799359244
202.5573772568131
202.55797401697077
202.56077663257994
202.5690097378659
202.59141248431467
202.64951660350917
202.79310823466258
203.13001628555853
203.8774533671197
205.43886669024684
208.49800180006207
214.0986510368965
223.65178819736622
238.80665633532973
261.1472045174822
292.12917312393535
269.9490634011827
235.69808292154875
210.4400160928183
193.01581717467508
181.8531241209259
175.20545453362743
171.51912140712344
169.61031204219657
168.6841096879393
168.26131672559913
168.07900042623956
168.00442556963407
167.9753827574772
167.9645982196431
167.9608465316759
167.9598771994759
167.9605270788114
167.96357307399057
167.97249454609943
167.99668657750564
168.059198733595
168.21307279830233
168.57261231469982
169.36683453763828
171.0187275166003
174.24101095767028
180.11531158670147
190.09528767629268
205.86637235525242
229.05458609985513
260.61125422062554
247.24955987173786
212.23289493253037
186.28996365688468
168.38810276389387
156.89261202140835
150.02737483721953
146.20816412591068
144.22379137400108
143.25754780047168
142.81493049751225
142.62340930501878
142.5448090740599
142.51410129067202
142.5026643350435
142.49867530942623
142.49764305076312
142.49833649929013
142.50158000415868
142.51105636731117
142.53668084214468
142.60269586647902
142.76468462515035
143.14196214858123
143.97262486871634
145.69460664531113
149.04269936356687
155.12728024329863
165.43372506934205
181.67624411930785
205.46190976136722
237.89283350343487
231.51223419389922
196.02675205911152
169.69076413927328
151.48083147695735
139.76761951159884
132.7574015617163
128.84816063714578
126.81173272159101
125.81745345808216
125.36073599781685
125.16256875661333
125.08102070813959
125.0490772322835
125.03714996471034
125.03298074283359
125.0319006405642
125.03262837537322
125.0360250948454
125.04592836459634
125.07264534069051
125.14130868467491
125.3093806469142
125.69984956468365
126.55742107894991
128.33086311782685
131.77097498166648
138.00913055068366
148.55482112300226
165.14401388942932
189.4196992022938
222.51078777737496
221.3286086453458
185.59676645902155
159.0488172806322
140.66799041311913
128.82725362807446
121.72948267793173
117.76441038485873
115.69492688658539
114.68244883094323
114.21638808534955
114.01373110582351
113.930155488066
113.89734763675337
113.88507200312999
113.8807731235113
113.87965855166568
113.88041214842285
113.88392234277106
113.8941386642365
113.92164865169939
113.99221479522808
114.16461522642531
114.56438698523984
115.44079271326184
117.2500564128349
120.75405731937268
127.0990315634362
137.81233340393428
154.65118333381716
179.2802398627409
212.84630242925482
215.1770209089555
179.33417228253077
152.6871557694486
134.22246206019665
122.3159644487515
115.17079047022716
111.17431007348594
109.08560808073874
108.06223600709028
107.5904321786587
107.38494763060727
107.30006623429745
107.2666900809654
107.25418102913405
107.24979393964355
107.24865591286456
107.24942819854796
107.25301856817585
107.26345355026884
107.29151105463046
107.36337597521735
107.53869927777218
107.9446928484472
108.83359731614783
110.66650879310973
114.2126120271032
120.62815238245085
131.45315372323742
148.45924831574754
173.325130944834
207.20729440250804
211.70198665898135
175.8200614052001
149.13499131236563
130.6353161613136
118.6992797318455
111.53141503445678
107.51906560468859
105.42021029337356
104.39085866571808
103.91579483427434
103.70865617959471
103.62298980082474
103.58926338259951
103.57660718631611
103.57216348313315
103.5710104326739
103.5717956578005
103.57544005062371
103.58602047399471
103.61443751424783
103.68714468516133
103.86434158019509
104.27428284679004
105.17105292649354
107.01876321466182
110.59114554582725
117.05075244404988
127.94555107569776
145.05601551774646
170.06898664835384
204.14622685175587
209.86163325267503
173.9724009067265
147.2773843513221
128.76638325358192
116.81931443680898
109.64206242282336
105.62261909120599
103.5189375154249
102.48659733030473
102.00983329514239
101.80179934589846
101.71569385500324
101.68176559748488
101.6690223343406
101.66454443120567
101.66338235750874
101.66417616881554
101.66785527741354
101.67852783303265
101.7071694797082
101.78039578095206
101.95873321110633
102.37105135443088
103.27251437827157
105.1289926523702
108.71686639618483
115.20233961805397
126.13791289253459
143.30896990144646
168.40670641830823
202.59551529183534
208.94506926760207
173.05914674926663
146.36451614546135
127.85171295060707
115.90168896197291
108.72128204167407
104.69911487358792
102.59340322639079
101.55971669958578
101.08214343374081
100.87366325975233
100.78733001703704
100.75329332423064
100.74050182067698
100.73600451825077
100.73483738835726
100.7356366628323
100.73933705324781
100.75006521140514
100.77884040398662
100.85237096581197
101.03136797491052
101.44504417083097
102.34916020573144
104.21054934365193
107.8070261367742
114.30674334404056
125.26457105899377
142.4683903249859
167.6115320104281
201.8595886387665
208.51429163976863
172.6332536603888
145.9413856321188
127.42962423683171
115.47949696316284
108.29840907620022
104.27541288795128
102.16897181458792
101.13474847834087
100.65682739760737
100.44814379075392
100.36170152316417
100.32761070267375
100.31479424000557
100.31028663339715
100.3091168784639
100.30991948754586
100.31363232966804
100.32439247268898
100.3532432764336
100.42694348216345
100.60630294201977
101.02071536294324
101.92625157727501
103.79023818610604
107.39121226456112
113.89828863570993
124.86747974023515
142.08783718768467
167.2536558762237
201.5310259674909
208.32253177624196
172.44515128818972
145.7556736496637
127.24523962069632
115.29566947070671
108.11466832784261
104.09153320572918
101.98488952392935
100.95048423399349
100.47243078569862
100.26366326564167
100.17717315009375
100.14305733718702
100.13022885604268
100.12571614126132
100.12454513694148
100.1253496990009
100.12906949809361
100.13984718737613
100.16873877588604
100.2425289965761
100.42207774732782
100.83686883740314
101.74312477692679
103.60840879784202
107.21159729494411
113.72224657113344
124.69688014304727
141.92505842612462
167.1014792188721
201.39242021095126
208.2413877741852
172.36617403272706
145.6781964676043
127.16869340395554
115.21962298229971
108.03883473384096
104.0157492426885
101.90908054554592
100.87462872325476
100.39653260852705
100.18773441217658
100.1012252558395
100.06709883813562
100.05426499455167
100.0497499261676
100.04857838612459
100.04938404508943
100.0531075570651
100.06389442852912
100.09280698154605
100.1666426655055
100.34628538045116
100.76126127883471
101.6678626537268
103.53375919797597
107.13797641766453
113.65025989639506
124.62734663288927
141.85900343011272
167.04008485020768
201.3369329529756
208.20864619096096
172.33454936678464
145.64737027169556
127.13839091460635
115.18963017508253
108.00900197771371
103.98598381228082
101.87933274374475
100.84487688585725
100.36677054055204
100.15796282440097
100.07144691938645
100.03731640009417
100.02448034845133
100.01996427537576
100.01879253385593
100.01959878174462
100.02332418479281
100.03411563716985
100.06303845435262
100.13689598592156
100.3165830263523
100.73164451833678
101.63840300579146
103.50457323261188
107.10924226575526
113.62223189000281
124.60036282486072
141.8334804422115
167.01649640405338
201.31577246345253
208.19605528710997
172.3224765771017
145.6356754050455
127.1269523451207
115.17835140166889
107.99781329533539
103.97483973153726
101.8682067824903
100.83375565227755
100.3556485011025
100.14683849106471
100.06032048677882
100.02618851582974
100.01335161668105
100.00883514111834
100.00766333311752
100.00846987842888
100.01219619318886
100.02298980931592
100.05191738275578
100.12578484601752
100.30549165405014
100.72059060011438
101.62741656503137
103.4937022210984
107.09855853881557
113.61183616862546
124.59038674185726
141.8240837943661
167.00785851132449
201.30807805870808
208.19158216246123
172.3182148412165
145.63156949235827
127.12295397530332
115.17442186051224
107.9939240903794
103.97097173121915
101.86434837793814
100.82990059421641
100.35179391298443
100.14298335409293
100.05646464657079
100.02233212500444
100.00949487982288
100.00497823135184
100.00380639308983
100.00461306829806
100.00833977974332
100.01913432319927
100.04806389833918
100.12193546391296
100.30165028673005
100.71676414520363
101.62361650722966
103.48994656356896
107.09487378440289
113.60825885836482
124.58696391992984
141.82087181554226
167.00491987503895
201.30547655410365
208.19058400812634
172.3172667418908
145.63065714396635
127.12206495700963
115.17354646214767
107.99305542688417
103.97010545841457
101.86348214195317
100.82903340081451
100.35092556033595
100.14211401200085
100.05559459459876
100.02146162101296
100.0086241157742
100.0041073351994
100.00293544948141
100.00374214637414
100.00746896641309
100.01826376919496
100.0471938908101
100.1210665444558
100.30078343728388
100.71590105918709
101.62275995232645
103.48910081028441
107.0940450349351
113.60745556529923
124.58619685776792
141.82015378149595
167.00426498085048
201.30489889611485
208.19197403684484
172.3185837919627
145.63191453886796
127.1232753264891
115.17472102081827
107.99420372009145
103.97123524590661
101.86459943691727
100.83014263284163
100.35202982631219
100.14321536258339
100.05669431478097
100.02256047292656
100.00972252655276
100.00520552955099
100.0040335342801
100.00484015504315
100.00856686916883
100.01936144715664
100.04829106234747
100.12216262257857
100.30187729009586
100.7169906517114
101.62384186437822
103.49016966978498
107.09509295901015
113.60847175755252
124.58716753800438
141.8210625991297
167.00509395621418
201.30563017099584
208.19727262950832
172.3236282421067
145.63675618862626
127.12796098181968
115.17929142339129
107.99869252758396
103.97566881609828
101.86899731812126
100.83451853590522
100.35639284391732
100.14757119072098
100.06104632444769
100.02691055112635
100.01407167009992
100.0095542291222
100.00838199854742
100.00918841180516
100.01291476527015
100.02370853537705
100.05263632654807
100.12650395494963
100.30621060419021
100.72130853082336
101.62813169903292
103.49441140630462
107.09925679488632
113.61251636224273
124.59103952532395
141.82469790847134
167.00842148538342
201.30857716417927
208.21194232782054
172.33768769335833
145.65032784999525
127.14115782278537
115.1922121719803
108.01141886487602
103.98826459603019
101.88150965508021
100.84698018768414
100.36882526868752
100.15998761921807
100.07345443850667
100.03931455808146
100.02647373967288
100.02195540208363
100.02078270492072
100.02158869790124
100.0253142869314
100.03610628551482
100.06502996440108
100.13888849400912
100.31857611235043
100.73363650578864
101.6403898999345
103.50654737588877
107.11119094124635
113.62413624348645
124.60219752451955
141.8352143997392
167.01809465584654
201.3171990639385
208.24986161023247
172.374297094345
145.68588455398324
127.1759023174067
115.22635705422842
108.04514157046226
104.02170459123323
101.91477001442017
100.88013239878352
100.40191585184445
100.19304495734406
100.10649478184943
100.07234666049075
100.05950203341645
100.0549819744922
100.05380840896082
100.0546136332635
100.05833778850298
100.06912634339993
100.09804175094096
100.17188137658974
100.35152821391917
100.76650579893953
101.67310101617382
103.5389744120082
107.14313826703366
113.65532158598594
124.63224341555606
141.86365421062428
167.0443970879849
201.34081036871933
208.34334789517942
172.46524477635165
145.77476959778366
127.26317991547016
115.31243844999084
108.13037641939061
104.10637162822127
101.99907704756556
100.96422397904331
100.48588580526628
100.27695010057843
100.19036727054383
100.15620356988116
100.14335187136568
100.13882868508765
100.13765359475491
100.13845751138318
100.14217918165342
100.15296154005597
100.1818615017737
100.25566455972036
100.43522982136233
100.85003645948528
101.75629543850188
103.62154856497155
107.2246394476156
113.73508172371238
124.70935148276646
141.93696498380342
167.1125881600687
201.4024865322106
208.56304168341487
172.68064064468112
145.9865917614401
127.47215572513493
115.5192558638423
108.33564431390221
104.31059082089128
102.2026290346554
101.16737731155878
100.68881543255229
100.47976163375708
100.39311999556372
100.35892861433585
100.34606454196772
100.34153598669823
100.34035836877315
100.34116021100866
100.34487789049649
100.35564989967855
100.3845230215468
100.45826010875949
100.63767287818804
101.05214912063967
101.95773778433217
103.82171882225202
107.42255247131719
113.92924904330404
124.89770156651176
142.11684833401762
167.28090038250394
201.55591295896568
209.05355105021263
173.16532032616482
146.4661445322485
127.94740733319804
115.99110046225188
108.80496006305711
104.77815545457715
102.66906453019536
101.63313433685924
101.15419186301777
100.94493806719936
100.85819756905506
100.82396009341899
100.81107565005013
100.80653839280637
100.80535682152004
100.80615560788249
100.80986738936002
100.82062344934556
100.84945338870875
100.92307998044095
101.10222750779452
101.51610841395633
102.42044900639064
104.2819895341114
107.87837493617117
114.37751435336767
125.3339912720249
142.5354107360146
167.67489677185267
201.91794837692657
210.09018498928089
174.19757291167798
147.4935111600455
128.96990402403873
117.0092433933601
109.8195954769355
105.79022908759002
103.6794309808156
102.64245529900636
102.16292065626925
101.95335458071729
101.86645979243406
101.83215062344978
101.8192346892342
101.81468412931825
101.81349672835117
101.81429136403403
101.81799522098795
101.82872881657366
101.85749488957875
101.93095065931676
102.10967109259637
102.5225566272906
103.42473662116177
105.28191595007148
108.87012353387448
115.35502220852425
126.2884551161227
143.45516828435254
168.54588182948555
202.7247701972852
212.1564000681947
176.270517542146
149.56818878729737
131.04288748840446
119.07885720028774
111.88557826601813
107.85314697115473
105.74013507450529
104.70173746852653
104.2213735547712
104.01136223481967
103.92424509848676
103.88983204988067
103.8768704400257
103.87230069520817
103.87110518998847
103.87189468885902
103.87558908372165
103.8862942290978
103.9149744183228
103.9881883643048
104.16627617535966
104.57762595960331
105.47634581457356
107.3262995015302
110.90054078623234
117.36047171312019
128.25260910524057
145.356022714843
170.35654400894398
204.41549197893562
216.027150146019
180.18151280605326
153.502695691139
134.98817322745825
123.02693934766043
115.8325458988829
111.79777002281786
109.68254522472823
108.64252944247966
108.16114912551232
107.95056646804031
107.86315552050442
107.82860263811057
107.81557888848972
107.81098302046232
107.8097768898991
107.81056071598965
107.81424554038541
107.824919244188
107.85349619047584
107.92639988784128
108.10363173281685
108.51280663783706
109.40642394340327
111.24532620868844
114.7974928904189
121.21682214007863
132.040215756266
149.03633631628702
173.8819184819069
207.73278604755095
222.82207077880918
187.09190712804684
160.48680690004701
142.01324565378212
130.07124774096425
122.88379516712239
118.8501580214684
116.73395901097165
115.6926250419147
115.21021667062398
114.99898953970893
114.91122565608389
114.87649823142368
114.86339509312185
114.85876556292584
114.85754627307337
114.85832475330295
114.86200247828447
114.87264796421938
114.90111751059368
114.9736662959222
115.1498496020225
115.55621297227277
116.44292934304168
118.26628307500279
121.78627634874822
128.14451245060283
138.86173747231476
155.68888244236913
180.28733677073848
213.80355682187925
233.97382407793816
198.49854500626293
172.06038671488247
153.68542572051712
141.79556760316984
134.63255682708868
130.60830047069672
128.4945293003481
127.45306486638792
126.96994545648906
126.75810955124908
126.66996511306985
126.63503588687229
126.62183722813927
126.61716649040964
126.61593175790553
126.61670646242314
126.62038320664145
126.63101308316935
126.65939330014373
126.73159055158631
126.90662492087708
127.3096870348334
128.18786174719997
129.99111966207843
133.46794194083594
139.74139709550994
150.3063846532713
166.88575006805297
191.1167817622554
224.13336919519224
251.0650727768925
216.06088360678723
189.9358918977535
171.74994157013782
159.96900456678102
152.8610943687235
148.8610341828521
146.7560556465918
145.71686534247686
145.2338075329271
145.02155367561463
144.9330486749552
144.89790319933329
144.88459572066958
144.87987677976272
144.87862478387885
144.8793987418145
144.8830848717257
144.89372309571095
144.92206046738525
144.9939760300476
145.16790491651793
145.56745854287288
146.43594050145555
148.2152605752068
151.6386184048998
157.8034634121256
168.16732843457677
184.40471068998448
208.12346369425958
240.43996934616501
275.52062322522875
241.29626806238372
215.64317865349716
197.78763319442928
186.19951378412222
179.19203668478062
175.2380972144371
173.15144825033644
172.11823562501735
171.63650061332783
171.4241882003375
171.33539573007536
171.3000345717094
171.28660868017073
171.28183541948664
171.28056486520887
171.2813425103068
171.2850524448145
171.29573397857453
171.32410345578683
171.39587641177965
171.5689019474798
171.96507814067934
172.823383279893
174.5761301481758
177.93771738725854
183.97317972333533
194.0908139893847
209.90142864607034
232.90565993844132
264.3139869045098
308.5810925681671
274.98882655754755
250.1390250670388
232.79428775927823
221.50610240314538
214.65577599592416
210.7753586769486
208.719017184503
207.69649244170031
207.2177258812894
207.00584964683867
206.91688601489966
206.88132261328224
206.8677723354159
206.86293928113977
206.86164936245964
206.86243616370814
206.86618722671767
206.87695500223128
206.90545191245096
206.97727269866854
207.14971594862706
207.54291044328036
208.39110690569905
210.11573640844705
213.40932359386528
219.29849480275092
229.13332366106553
244.44563226334463
266.6706913369091
296.4259996220847
