# vtk DataFile Version 2.0
Unstructured Grid Example
ASCII
DATASET UNSTRUCTURED_GRID

POINTS 961 float
0.100000001 0.00499999989 0
0.0966666639 0.00499999989 0
0.0933333337 0.00499999989 0
0.0900000036 0.00499999989 0
0.086666666 0.00499999989 0
0.0833333358 0.00499999989 0
0.0799999982 0.00499999989 0
0.0766666681 0.00499999989 0
0.0733333305 0.00499999989 0
0.0700000003 0.00499999989 0
0.0666666701 0.00499999989 0
0.0633333325 0.00499999989 0
0.0599999987 0.00499999989 0
0.0566666685 0.00499999989 0
0.0533333346 0.00499999989 0
0.0500000007 0.00499999989 0
0.0466666669 0.00499999989 0
0.043333333 0.00499999989 0
0.0399999991 0.00499999989 0
0.0366666652 0.00499999989 0
0.0333333351 0.00499999989 0
0.0299999993 0.00499999989 0
0.0266666673 0.00499999989 0
0.0233333334 0.00499999989 0
0.0199999996 0.00499999989 0
0.0166666675 0.00499999989 0
0.0133333337 0.00499999989 0
0.00999999978 0.00499999989 0
0.00666666683 0.00499999989 0
0.00333333341 0.00499999989 0
0 0.00499999989 1
0.100000001 0.00166666671 0
0.0966666639 0.00166666671 0
0.0933333337 0.00166666671 0
0.0900000036 0.00166666671 0
0.086666666 0.00166666671 0
0.0833333358 0.00166666671 0
0.0799999982 0.00166666671 0
0.0766666681 0.00166666671 0
0.0733333305 0.00166666671 0
0.0700000003 0.00166666671 0
0.0666666701 0.00166666671 0
0.0633333325 0.00166666671 0
0.0599999987 0.00166666671 0
0.0566666685 0.00166666671 0
0.0533333346 0.00166666671 0
0.0500000007 0.00166666671 0
0.0466666669 0.00166666671 0
0.043333333 0.00166666671 0
0.0399999991 0.00166666671 0
0.0366666652 0.00166666671 0
0.0333333351 0.00166666671 0
0.0299999993 0.00166666671 0
0.0266666673 0.00166666671 0
0.0233333334 0.00166666671 0
0.0199999996 0.00166666671 0
0.0166666675 0.00166666671 0
0.0133333337 0.00166666671 0
0.00999999978 0.00166666671 0
0.00666666683 0.00166666671 0
0.00333333341 0.00166666671 0
0 0.00166666671 1
0.100000001 -0.00166666671 0
0.0966666639 -0.00166666671 0
0.0933333337 -0.00166666671 0
0.0900000036 -0.00166666671 0
0.086666666 -0.00166666671 0
0.0833333358 -0.00166666671 0
0.0799999982 -0.00166666671 0
0.0766666681 -0.00166666671 0
0.0733333305 -0.00166666671 0
0.0700000003 -0.00166666671 0
0.0666666701 -0.00166666671 0
0.0633333325 -0.00166666671 0
0.0599999987 -0.00166666671 0
0.0566666685 -0.00166666671 0
0.0533333346 -0.00166666671 0
0.0500000007 -0.00166666671 0
0.0466666669 -0.00166666671 0
0.043333333 -0.00166666671 0
0.0399999991 -0.00166666671 0
0.0366666652 -0.00166666671 0
0.0333333351 -0.00166666671 0
0.0299999993 -0.00166666671 0
0.0266666673 -0.00166666671 0
0.0233333334 -0.00166666671 0
0.0199999996 -0.00166666671 0
0.0166666675 -0.00166666671 0
0.0133333337 -0.00166666671 0
0.00999999978 -0.00166666671 0
0.00666666683 -0.00166666671 0
0.00333333341 -0.00166666671 0
0 -0.00166666671 1
0.100000001 -0.00499999989 0
0.0966666639 -0.00499999989 0
0.0933333337 -0.00499999989 0
0.0900000036 -0.00499999989 0
0.086666666 -0.00499999989 0
0.0833333358 -0.00499999989 0
0.0799999982 -0.00499999989 0
0.0766666681 -0.00499999989 0
0.0733333305 -0.00499999989 0
0.0700000003 -0.00499999989 0
0.0666666701 -0.00499999989 0
0.0633333325 -0.00499999989 0
0.0599999987 -0.00499999989 0
0.0566666685 -0.00499999989 0
0.0533333346 -0.00499999989 0
0.0500000007 -0.00499999989 0
0.0466666669 -0.00499999989 0
0.043333333 -0.00499999989 0
0.0399999991 -0.00499999989 0
0.0366666652 -0.00499999989 0
0.0333333351 -0.00499999989 0
0.0299999993 -0.00499999989 0
0.0266666673 -0.00499999989 0
0.0233333334 -0.00499999989 0
0.0199999996 -0.00499999989 0
0.0166666675 -0.00499999989 0
0.0133333337 -0.00499999989 0
0.00999999978 -0.00499999989 0
0.00666666683 -0.00499999989 0
0.00333333341 -0.00499999989 0
0 -0.00499999989 1
0.100000001 -0.00833333377 0
0.0966666639 -0.00833333377 0
0.0933333337 -0.00833333377 0
0.0900000036 -0.00833333377 0
0.086666666 -0.00833333377 0
0.0833333358 -0.00833333377 0
0.0799999982 -0.00833333377 0
0.0766666681 -0.00833333377 0
0.0733333305 -0.00833333377 0
0.0700000003 -0.00833333377 0
0.0666666701 -0.00833333377 0
0.0633333325 -0.00833333377 0
0.0599999987 -0.00833333377 0
0.0566666685 -0.00833333377 0
0.0533333346 -0.00833333377 0
0.0500000007 -0.00833333377 0
0.0466666669 -0.00833333377 0
0.043333333 -0.00833333377 0
0.0399999991 -0.00833333377 0
0.0366666652 -0.00833333377 0
0.0333333351 -0.00833333377 0
0.0299999993 -0.00833333377 0
0.0266666673 -0.00833333377 0
0.0233333334 -0.00833333377 0
0.0199999996 -0.00833333377 0
0.0166666675 -0.00833333377 0
0.0133333337 -0.00833333377 0
0.00999999978 -0.00833333377 0
0.00666666683 -0.00833333377 0
0.00333333341 -0.00833333377 0
0 -0.00833333377 1
0.100000001 -0.0116666667 0
0.0966666639 -0.0116666667 0
0.0933333337 -0.0116666667 0
0.0900000036 -0.0116666667 0
0.086666666 -0.0116666667 0
0.0833333358 -0.0116666667 0
0.0799999982 -0.0116666667 0
0.0766666681 -0.0116666667 0
0.0733333305 -0.0116666667 0
0.0700000003 -0.0116666667 0
0.0666666701 -0.0116666667 0
0.0633333325 -0.0116666667 0
0.0599999987 -0.0116666667 0
0.0566666685 -0.0116666667 0
0.0533333346 -0.0116666667 0
0.0500000007 -0.0116666667 0
0.0466666669 -0.0116666667 0
0.043333333 -0.0116666667 0
0.0399999991 -0.0116666667 0
0.0366666652 -0.0116666667 0
0.0333333351 -0.0116666667 0
0.0299999993 -0.0116666667 0
0.0266666673 -0.0116666667 0
0.0233333334 -0.0116666667 0
0.0199999996 -0.0116666667 0
0.0166666675 -0.0116666667 0
0.0133333337 -0.0116666667 0
0.00999999978 -0.0116666667 0
0.00666666683 -0.0116666667 0
0.00333333341 -0.0116666667 0
0 -0.0116666667 1
0.100000001 -0.0149999997 0
0.0966666639 -0.0149999997 0
0.0933333337 -0.0149999997 0
0.0900000036 -0.0149999997 0
0.086666666 -0.0149999997 0
0.0833333358 -0.0149999997 0
0.0799999982 -0.0149999997 0
0.0766666681 -0.0149999997 0
0.0733333305 -0.0149999997 0
0.0700000003 -0.0149999997 0
0.0666666701 -0.0149999997 0
0.0633333325 -0.0149999997 0
0.0599999987 -0.0149999997 0
0.0566666685 -0.0149999997 0
0.0533333346 -0.0149999997 0
0.0500000007 -0.0149999997 0
0.0466666669 -0.0149999997 0
0.043333333 -0.0149999997 0
0.0399999991 -0.0149999997 0
0.0366666652 -0.0149999997 0
0.0333333351 -0.0149999997 0
0.0299999993 -0.0149999997 0
0.0266666673 -0.0149999997 0
0.0233333334 -0.0149999997 0
0.0199999996 -0.0149999997 0
0.0166666675 -0.0149999997 0
0.0133333337 -0.0149999997 0
0.00999999978 -0.0149999997 0
0.00666666683 -0.0149999997 0
0.00333333341 -0.0149999997 0
0 -0.0149999997 1
0.100000001 -0.0183333326 0
0.0966666639 -0.0183333326 0
0.0933333337 -0.0183333326 0
0.0900000036 -0.0183333326 0
0.086666666 -0.0183333326 0
0.0833333358 -0.0183333326 0
0.0799999982 -0.0183333326 0
0.0766666681 -0.0183333326 0
0.0733333305 -0.0183333326 0
0.0700000003 -0.0183333326 0
0.0666666701 -0.0183333326 0
0.0633333325 -0.0183333326 0
0.0599999987 -0.0183333326 0
0.0566666685 -0.0183333326 0
0.0533333346 -0.0183333326 0
0.0500000007 -0.0183333326 0
0.0466666669 -0.0183333326 0
0.043333333 -0.0183333326 0
0.0399999991 -0.0183333326 0
0.0366666652 -0.0183333326 0
0.0333333351 -0.0183333326 0
0.0299999993 -0.0183333326 0
0.0266666673 -0.0183333326 0
0.0233333334 -0.0183333326 0
0.0199999996 -0.0183333326 0
0.0166666675 -0.0183333326 0
0.0133333337 -0.0183333326 0
0.00999999978 -0.0183333326 0
0.00666666683 -0.0183333326 0
0.00333333341 -0.0183333326 0
0 -0.0183333326 1
0.100000001 -0.0216666665 0
0.0966666639 -0.0216666665 0
0.0933333337 -0.0216666665 0
0.0900000036 -0.0216666665 0
0.086666666 -0.0216666665 0
0.0833333358 -0.0216666665 0
0.0799999982 -0.0216666665 0
0.0766666681 -0.0216666665 0
0.0733333305 -0.0216666665 0
0.0700000003 -0.0216666665 0
0.0666666701 -0.0216666665 0
0.0633333325 -0.0216666665 0
0.0599999987 -0.0216666665 0
0.0566666685 -0.0216666665 0
0.0533333346 -0.0216666665 0
0.0500000007 -0.0216666665 0
0.0466666669 -0.0216666665 0
0.043333333 -0.0216666665 0
0.0399999991 -0.0216666665 0
0.0366666652 -0.0216666665 0
0.0333333351 -0.0216666665 0
0.0299999993 -0.0216666665 0
0.0266666673 -0.0216666665 0
0.0233333334 -0.0216666665 0
0.0199999996 -0.0216666665 0
0.0166666675 -0.0216666665 0
0.0133333337 -0.0216666665 0
0.00999999978 -0.0216666665 0
0.00666666683 -0.0216666665 0
0.00333333341 -0.0216666665 0
0 -0.0216666665 1
0.100000001 -0.0250000004 0
0.0966666639 -0.0250000004 0
0.0933333337 -0.0250000004 0
0.0900000036 -0.0250000004 0
0.086666666 -0.0250000004 0
0.0833333358 -0.0250000004 0
0.0799999982 -0.0250000004 0
0.0766666681 -0.0250000004 0
0.0733333305 -0.0250000004 0
0.0700000003 -0.0250000004 0
0.0666666701 -0.0250000004 0
0.0633333325 -0.0250000004 0
0.0599999987 -0.0250000004 0
0.0566666685 -0.0250000004 0
0.0533333346 -0.0250000004 0
0.0500000007 -0.0250000004 0
0.0466666669 -0.0250000004 0
0.043333333 -0.0250000004 0
0.0399999991 -0.0250000004 0
0.0366666652 -0.0250000004 0
0.0333333351 -0.0250000004 0
0.0299999993 -0.0250000004 0
0.0266666673 -0.0250000004 0
0.0233333334 -0.0250000004 0
0.0199999996 -0.0250000004 0
0.0166666675 -0.0250000004 0
0.0133333337 -0.0250000004 0
0.00999999978 -0.0250000004 0
0.00666666683 -0.0250000004 0
0.00333333341 -0.0250000004 0
0 -0.0250000004 1
0.100000001 -0.0283333343 0
0.0966666639 -0.0283333343 0
0.0933333337 -0.0283333343 0
0.0900000036 -0.0283333343 0
0.086666666 -0.0283333343 0
0.0833333358 -0.0283333343 0
0.0799999982 -0.0283333343 0
0.0766666681 -0.0283333343 0
0.0733333305 -0.0283333343 0
0.0700000003 -0.0283333343 0
0.0666666701 -0.0283333343 0
0.0633333325 -0.0283333343 0
0.0599999987 -0.0283333343 0
0.0566666685 -0.0283333343 0
0.0533333346 -0.0283333343 0
0.0500000007 -0.0283333343 0
0.0466666669 -0.0283333343 0
0.043333333 -0.0283333343 0
0.0399999991 -0.0283333343 0
0.0366666652 -0.0283333343 0
0.0333333351 -0.0283333343 0
0.0299999993 -0.0283333343 0
0.0266666673 -0.0283333343 0
0.0233333334 -0.0283333343 0
0.0199999996 -0.0283333343 0
0.0166666675 -0.0283333343 0
0.0133333337 -0.0283333343 0
0.00999999978 -0.0283333343 0
0.00666666683 -0.0283333343 0
0.00333333341 -0.0283333343 0
0 -0.0283333343 1
0.100000001 -0.0316666663 0
[...]
POINT_DATA 961
SCALARS Temp float 1
LOOKUP_TABLE default
276.70113931672137
244.83760716799395
222.63698703111038
208.5287121076639
200.3519156799755
196.01762386981457
193.90609949305062
192.95493716465896
192.5561185165229
192.39942403559587
192.34136458873797
192.32095628153465
192.3141150061319
192.31192081360604
192.31125732435186
192.31111296740394
192.31125732407693
192.31192081260767
192.3141150073092
192.32095628555285
192.34136452021406
192.3994240005563
192.55611856013644
192.9549365585251
193.90609957379215
196.01761884504336
200.35191166838402
208.5286921516663
222.63696802855415
244.83761232830602
276.7010979419202
244.83769410388481
211.87371339998643
188.9048020475433
174.30694820229758
165.8454484837541
161.3596672798741
159.1740398764012
158.18935597420665
157.7764225007537
157.61415943215005
157.55402845937093
157.53288923238784
157.52580205871374
157.5235287348626
157.52284124588255
157.52269165656637
157.52284124559452
157.5235287338157
157.52580205988914
157.532889236397
157.55402838788837
157.61415939422747
157.77642254086447
158.1893553317198
159.17403991755037
161.35966196246133
165.84544402385418
174.30692666821372
188.90478034881525
211.8737008815305
244.83761594734327
222.6370676587818
188.90480454988557
165.39648574197398
150.45227709477655
141.78749346166273
137.19241129953264
134.95271861031426
133.9432963397056
133.51982723204313
133.35336138946673
133.29165031565958
133.26994793655246
133.26266950874563
133.26033409571508
133.25962762850526
133.25947387961688
133.25962762820038
133.2603340946048
133.26266950982935
133.26994794024554
133.2916502408865
133.3533613460966
133.51982725955412
133.94329564110768
134.9527185410228
137.19240555303745
141.78748811605107
150.45225309390005
165.39645788823805
188.90478019944726
222.63697098288375
208.52879685591518
174.30695671225632
150.4522846328392
135.28338868565353
126.48507318416283
121.81717367564016
119.54091439756048
118.51449944463029
118.0836811511922
117.91423943781155
117.85139341681102
117.82928103543196
117.821861591152
117.81947985812494
117.8187590853071
117.81860217891439
117.81875908498299
117.81947985694225
117.8218615920803
117.82928103859709
117.85139333869398
117.91423938754212
118.08368116086108
118.5144986817929
119.54091418535492
121.81716747210983
126.48506687052449
135.28336225858598
150.45225229857988
174.30692566002557
208.52869218040286
200.35202270622145
165.84547852621517
141.78752286999347
126.48509540068358
117.60620130472107
112.89359152170087
110.59445681558391
109.55720461894337
109.12160813478093
108.95019490171983
108.88658331026775
108.86418961156747
108.85667185336396
108.85425734603733
108.85352631841222
108.85336712863922
108.8535263180687
108.85425734478143
108.85667185410828
108.8641896141191
108.88658322908964
108.9501948444615
109.12160812594439
109.55720379657917
110.59445646827717
112.89358493592161
117.60619421378225
126.485067321228
141.78748790767617
165.84544413739087
200.351914110716
196.01773773871557
161.3596998461107
137.19244270895746
121.81719788840834
112.89359347805019
108.15567683532736
105.84331113046879
104.79964788306415
104.36115977342169
104.18852648475041
104.12443081472111
104.10185555783022
104.09427311660717
104.0918366581573
104.09109865345823
104.0909378936563
104.09109865309671
104.09183665683494
104.09427311717204
104.10185555979807
104.12443073102597
104.18852642149962
104.36115974889354
104.79964701428436
105.84331068029707
108.15566998608894
112.89358589297647
121.8171688685026
137.19240639600642
161.35966386140143
196.01762730228359
193.9062180501602
159.1740771884256
134.95275516850094
119.54094408913237
110.5944643860254
105.8433168212358
103.52386727720503
102.4766844389686
102.0365677498173
101.86322964625116
101.79884733451958
101.77616199725568
101.76853945151493
101.76608909687657
101.7653465936079
101.765184809001
101.76534659323153
101.76608909549968
101.76853945192782
101.77616199874394
101.798847248963
101.86322957853591
102.03656771394202
102.47668353902941
103.52386676102226
105.84330981754235
110.59445653202164
119.54091459675561
134.95271821912868
159.17404048788947
193.90610679273436
192.95504877662705
158.18939081185576
133.94333195558622
118.51452871752976
109.55721194108686
104.79965339650464
102.47668427439955
101.42770527577277
100.98673414784516
100.81301582622653
100.7484745924289
100.72572658757231
100.71808062813139
100.71562196709027
100.71487671825722
100.71471429943684
100.71487671786937
100.71562196567267
100.71808062843009
100.72572658871228
100.74847450563033
100.8130157555748
100.98673410480937
101.42770435749865
102.47668372145972
104.79964631310678
109.55720395693992
118.51449900926139
133.9432947288339
158.18935381009945
192.95493717468943
192.55622386722928
157.77645600065165
133.51986294599348
118.08371094114692
109.12161612752196
104.36116602473473
102.03656834551366
100.98673491600094
100.54534537560852
100.37143527990203
100.30681149480279
100.28402998758938
100.27637116001961
100.2739078132385
100.27316097945014
100.27299818884329
100.27316097905438
100.27390781179288
100.27637116024106
100.28402998850278
100.30681140725362
100.37143520752566
100.54534532856475
100.98673398811925
102.03656777436245
104.36115890427466
109.12160808604327
118.08368114185362
133.5198256065142
157.77641887983177
192.55611212919416
192.39952973290912
157.6141932463995
133.3533969133312
117.91426901916748
108.95020271952896
104.18853258896068
101.8632301065665
100.81301646371277
100.37143514983521
100.19743443168319
100.13277041590496
100.1099720759072
100.10230658835584
100.09984074715021
100.0990930482413
100.0989300513004
100.0990930478403
100.09984074568713
100.1023065885298
100.10997207668728
100.13277032794292
100.19743435839302
100.37143510077343
100.81301553127868
101.86322952723316
104.18852545270441
108.950194654719
117.91423918409207
133.35335953085539
157.61415608119975
192.39941794410583
192.34148104473388
157.5540638959626
133.29168614876036
117.85142306203169
108.88659115613649
104.12443694613997
101.79884782278513
100.74847525824627
100.30681139272944
100.13277044370332
100.06808799564918
100.04528169571927
100.03761295929975
100.03514586443553
100.03439771901361
100.03423461368584
100.03439771860948
100.03514586296244
100.03761295944719
100.04528169642794
100.06808790747922
100.13277036997209
100.30681134274205
100.74847432383547
101.79884724006875
104.12442980363507
108.88658308245944
117.85139321373406
133.2916487507971
157.5540267150931
192.34136923796538
192.32107346309581
157.53292491178252
133.26998393932527
117.8293108175105
108.86419757104342
104.1018617840051
101.7761625691304
100.7257273316777
100.28402996142407
100.1099721787101
100.04528177043656
100.02247192076837
100.01480168846756
100.0123339982435
100.01158563481764
100.01142247559498
100.01158563441196
100.01233399676488
100.01480168860127
100.0224719214419
100.04528168217017
100.10997210478307
100.2840299110456
100.72572639647134
101.77616198511191
104.10185463918329
108.86418949419219
117.82928096458832
133.26994653606354
157.53288772564417
192.32096165027713
192.31422173549223
157.5258364448286
133.26270544646246
117.82189150806195
108.85667990637397
104.09427939040708
101.7685400449885
100.71808138205765
100.27637113890441
100.1023066944616
100.03761303673242
100.01480169102177
100.00713080768102
100.0046628500752
100.00391438593942
100.00375120135261
100.00391438553274
100.00466284859402
100.00713080780818
100.01480169167938
100.03761294842455
100.10230662045421
100.27637108837213
100.71808044655187
101.76853946049927
104.09427224477379
108.85667182844489
117.82186165359983
133.26266804147068
157.52579925699322
192.3141099207329
192.3120268664811
157.52356281056814
133.26037057981475
117.81951010378856
108.85426555846753
104.09184299949328
101.76608971633951
100.71562273003745
100.27390779472867
100.09984085360209
100.03514594146637
100.0123340001682
100.00466284939174
100.00219477850987
100.00144627050796
100.00128307467105
100.0014462701008
100.00219477702743
100.004662849516
100.0123340008191
100.03514585314188
100.09984077956382
100.27390774413999
100.71562179442573
101.76608913168963
104.09183585359044
108.85425748019031
117.81948024883661
133.2603331742819
157.52352562221034
192.3119150511213
192.31136786823063
157.52287945577643
133.25966545729435
117.81878985323853
108.85353473250228
104.09110507216342
101.76534724222518
100.71487749228648
100.27316096554325
100.09909315708718
100.03439779772175
100.01158563819935
100.00391438665137
100.00144627189013
100.00069774646929
100.00053454609262
100.00069774606204
100.00144627040721
100.00391438677448
100.0115856388478
100.03439770939131
100.09909308303828
100.27316091493569
100.7148765566406
101.76534665752516
104.09109792617798
108.85352665412097
117.81875999814118
133.2596280516033
157.52284226726752
192.31125605269034
192.31124618897934
157.52273409466028
133.25951302612586
117.81863337808437
108.85337569605545
104.09094436786624
101.76518547759265
100.71471508064784
100.27299817764718
100.09893016135584
100.03423469312004
100.01142247955336
100.00375120259753
100.00128307657451
100.00053454661143
100.00037134503872
100.00053454620418
100.00128307509144
100.00375120272051
100.01142248020116
100.03423460478831
100.0989300873048
100.27299812703627
100.71471414499595
101.76518489288442
104.090937221867
108.8533676176578
117.81860352296326
133.25947562040986
157.5226969061354
192.3111343733923
192.31139064539315
157.52288377629858
133.25966684480437
117.81879032686966
108.85353490721242
104.09110513658818
101.76534726550511
100.71487750046369
100.27316096836807
100.09909315808902
100.03439779812682
100.01158563841625
100.00391438681088
100.00144627203271
100.00069774660707
100.00053454622936
100.00069774619982
100.00144627054979
100.00391438693403
100.01158563906495
100.03439770979718
100.09909308404191
100.27316091776453
100.71487656482539
101.76534668081824
104.09109799062304
108.85352682886023
117.81876047180971
133.25962943915792
157.5228465878451
192.31127882988304
192.31203170469163
157.5235672677007
133.260372153616
117.81951075873381
108.8542658206389
104.09184310194932
101.76608975485689
100.71562274406949
100.2739077998086
100.09984085555782
100.03514594237868
100.01233400074561
100.00466284986582
100.00219477895308
100.00144627094228
100.00128307510356
100.0014462705352
100.00219477747058
100.00466284999015
100.01233400139719
100.03514585405614
100.09984078152478
100.27390774923173
100.71562180848144
101.76608917024946
104.09183595611469
108.8542577424618
117.81948090391461
133.26033474824473
157.52353007952198
192.31191988950715
192.31422186972446
157.52583680493092
133.26270645893862
117.82189204173763
108.85668015719499
104.09427949738227
101.76854008817217
100.71808139903108
100.27637114579093
100.10230669768131
100.03761303868622
100.0148016925585
100.00713080908609
100.00466285144032
100.00391438729291
100.00375120270367
100.00391438688611
100.00466284995895
100.00713080921321
100.01480169321687
100.03761295038213
100.10230662368555
100.2763710952877
100.71808046358764
101.76853950380097
104.09427235194845
108.85667207956936
117.82186218769151
133.26266905446323
157.5257996176755
192.3141100555552
192.32106430166402
157.5329252914356
133.26998437210995
117.82931117550773
108.86419776317742
104.10186187643917
101.77616261113323
100.72572735101792
100.28402997141498
100.10997218511471
100.04528177555059
100.02247192544351
100.01480169300079
100.01233400273296
100.01158563929422
100.01142248006879
100.0115856388882
100.01233400125376
100.01480169313363
100.02247192611706
100.04528168728916
100.10997211120907
100.28402992109861
100.72572641595978
101.77616202741804
104.10185473216129
108.86418968719154
117.82928132381397
133.26994697040988
157.53288810707227
192.32095249066322
192.34149086130395
157.55406458947837
133.29168664311092
117.85142333114688
108.88659132467701
104.12443704921229
101.79884788921645
100.7484753065836
100.30681143307112
100.13277048082506
100.06808803157277
100.04528173122621
100.03761299467003
100.03514589976322
100.0343977543286
100.03423464899804
100.03439775392373
100.035145898288
100.0376129948136
100.04528173192986
100.0680879434028
100.13277040712099
100.30681138319481
100.74847437248503
101.7988473072107
104.12442990808337
108.88658325331674
117.85139348627773
133.29164924963237
157.5540274138068
192.3413790598467
192.39953175487022
157.6141947696692
133.3533972404082
117.91426918715776
108.95020280672121
104.18853262349167
101.86323010970641
100.8130164508211
100.3714351297314
100.19743440865075
100.13277039177852
100.10997205139942
100.10230656372268
100.09984072247772
100.09909302355715
100.09893002661316
100.09909302315414
100.09984072100936
100.10230656388501
100.10997205215835
100.13277030378946
100.1974343353605
100.37143508080817
100.81301551893513
101.86322953184656
104.18852549040874
108.95019474766764
117.91423936106509
133.35335987011317
157.61415761887918
192.39941998092078
192.5562237251138
157.77645591822682
133.5198633791918
118.08371138750792
109.12161649072176
104.36116632538743
102.03656861186953
100.98673516648645
100.54534561955286
100.3714355213814
100.30681173541817
100.28403022791946
100.27637140025996
100.27390805345168
100.27316121965528
100.27299842904566
100.27316121925537
100.27390805199413
100.27637140045235
100.28403022877065
100.30681164775797
100.37143544886644
100.54534557250906
100.98673423927522
102.03656804326062
104.3611592114018
109.12160846229179
118.08368161007823
133.51982607078506
157.77641883517862
192.55611202637434
192.9550431630929
158.1893898385106
133.9433323041725
118.5145288877647
109.55721193986844
104.79965329934645
102.47668413525165
101.42770512037465
100.98673398668784
100.81301566315524
100.7484744287505
100.725726423707
100.71808046420946
100.71562180315114
100.71487655431238
100.71471413548896
100.7148765539169
100.7156218017097
100.71808046444568
100.72572642469858
100.74847434163958
100.8130155919553
100.98673394298146
101.42770420210039
102.47668358536082
104.79964622694392
109.55720398195547
118.51449922820338
133.94329515127916
158.18935292987072
192.95493165921155
193.9062146499154
159.17408213682577
134.9527579974926
119.54094630401953
110.59446632466697
105.84331866642978
103.52386909588968
102.47668625217659
102.0365695627097
101.86323145958156
101.79884914815719
101.77616381103479
101.76854126534805
101.76609091072766
101.76534840746359
101.76518662285457
101.76534840707413
101.76609090930845
101.76854126564282
101.77616381221955
101.7988490618898
101.86323139039267
102.03656952429189
102.47668534918817
103.52386857970683
105.84331167573933
110.59445851479079
119.54091690866417
134.9527212101074
159.17404565157292
193.90610362296894
196.0177696281478
161.35970449417295
137.19244484114125
121.81719905941993
112.89359444928654
108.15567778880556
105.84331209998827
104.79964886608994
104.36116076361975
104.18852747806454
104.12443180922509
104.10185655274614
104.09427411165437
104.09183765324309
104.09109964855318
104.0909388887485
104.09109964817118
104.0918376518524
104.09427411201956
104.10185655416977
104.12443172415375
104.18852741164031
104.36116073261698
104.79964798631443
105.84331163681308
108.15567093956697
112.89358691658953
121.81717020372265
137.19240885207964
161.35966897586582
196.0176597047937
200.35201636764936
165.84547670876785
141.7875188178381
126.48509133587312
117.60619746252179
112.89358785113885
110.59445323625054
109.55720108115773
109.12160461380878
108.9501913869299
108.8865797975675
108.86418609952203
108.85666834150942
108.85425383423421
108.85352280662022
108.85336361684263
108.8535228062474
108.854253832878
108.85666834195008
108.864186101208
108.8865797140725
108.9501913239149
109.12160459192319
109.5572002325589
110.59445284481576
112.89358121298206
117.60619037158192
126.48506346176097
141.78748442559706
165.8454432796659
200.35190886500203
208.5287919803153
174.3069558751261
150.45228735681746
135.28339344441136
126.48507901313668
121.81718000942988
119.54092095796604
118.51450609902845
118.08368784179522
117.91424614141648
117.85140012479737
117.82928774481208
117.8218683009531
117.81948656804653
117.81876579525893
117.81860888886396
117.81876579489669
117.81948656672992
117.82186830146456
117.82928774674826
117.85140004325163
117.91424608216418
118.08368782960011
118.51450528748306
119.54092064873777
121.81717364168941
126.48507249415205
135.28336701734426
150.45225586940884
174.30692667130495
208.52868969883284
222.63703894723858
188.90478303199612
165.39647255373936
150.4522674906302
141.78748536464772
137.19240388662945
134.9527114867812
133.9432893304645
133.51982026471757
133.35335443647543
133.2916433672598
133.2699409895369
133.26266256212392
133.2603271491989
133.25962068201287
133.2594669331191
133.25962068166226
133.26032714792544
133.26266256269025
133.26994099166794
133.29164328800175
133.3533543809243
133.51982026115547
133.94328855800651
134.95271125550067
137.1923978162419
141.78747944895375
150.45224264290138
165.39644469999956
188.90476287919046
222.63694729249582
244.83766718966226
211.8737232955215
188.90482180399826
174.30697156058403
165.8454738656501
161.3596936179955
159.17406663447218
158.1893829021656
157.77644949267773
157.6141864466322
157.5540554813574
157.5329162567441
157.52582908378423
157.5235557601386
157.52286827121182
157.5227186818955
157.52286827087335
157.52355575891073
157.52582908437859
157.53291625897455
157.55405540467996
157.61418639429962
157.7764494950168
158.18938216655928
159.1740664603326
161.3596878341868
165.84546844601834
174.30694817808717
188.90479590761908
211.87371077704654
244.83761678492402
276.70111956252344
244.83760300226112
222.63698044052177
208.5287087208382
200.35191402143232
196.01762306255648
193.90609905448943
192.9549368725761
192.5561182782239
192.39942381571674
192.3413643747834
192.32095606938051
192.31411479449733
192.3119206021136
192.31125711289326
192.31111275594083
192.31125711256732
192.3119206009324
192.31411479508594
192.3209560715882
192.34136430094117
192.39942376582047
192.55611828254231
192.95493616839127
193.9060989047514
196.01761752467874
200.35190891697266
208.5286863708143
222.63695641679337
244.83758041077533
276.7010781877508
