# vtk DataFile Version 2.0
Unstructured Grid Example
ASCII
DATASET UNSTRUCTURED_GRID

POINTS 961 float
0.100000001 0.00499999989 0
0.0966666639 0.00499999989 0
0.0933333337 0.00499999989 0
0.0900000036 0.00499999989 0
0.086666666 0.00499999989 0
0.0833333358 0.00499999989 0
0.0799999982 0.00499999989 0
0.0766666681 0.00499999989 0
0.0733333305 0.00499999989 0
0.0700000003 0.00499999989 0
0.0666666701 0.00499999989 0
0.0633333325 0.00499999989 0
0.0599999987 0.00499999989 0
0.0566666685 0.00499999989 0
0.0533333346 0.00499999989 0
0.0500000007 0.00499999989 0
0.0466666669 0.00499999989 0
0.043333333 0.00499999989 0
0.0399999991 0.00499999989 0
0.0366666652 0.00499999989 0
0.0333333351 0.00499999989 0
0.0299999993 0.00499999989 0
0.0266666673 0.00499999989 0
0.0233333334 0.00499999989 0
0.0199999996 0.00499999989 0
0.0166666675 0.00499999989 0
0.0133333337 0.00499999989 0
0.00999999978 0.00499999989 0
0.00666666683 0.00499999989 0
0.00333333341 0.00499999989 0
0 0.00499999989 0
0.100000001 0.00166666671 0
0.0966666639 0.00166666671 0
0.0933333337 0.00166666671 0
0.0900000036 0.00166666671 0
0.086666666 0.00166666671 0
0.0833333358 0.00166666671 0
0.0799999982 0.00166666671 0
0.0766666681 0.00166666671 0
0.0733333305 0.00166666671 0
0.0700000003 0.00166666671 0
0.0666666701 0.00166666671 0
0.0633333325 0.00166666671 0
0.0599999987 0.00166666671 0
0.0566666685 0.00166666671 0
0.0533333346 0.00166666671 0
0.0500000007 0.00166666671 0
0.0466666669 0.00166666671 0
0.043333333 0.00166666671 0
0.0399999991 0.00166666671 0
0.0366666652 0.00166666671 0
0.0333333351 0.00166666671 0
0.0299999993 0.00166666671 0
0.0266666673 0.00166666671 0
0.0233333334 0.00166666671 0
0.0199999996 0.00166666671 0
0.0166666675 0.00166666671 0
0.0133333337 0.00166666671 0
0.00999999978 0.00166666671 0
0.00666666683 0.00166666671 0
0.00333333341 0.00166666671 0
0 0.00166666671 0
0.100000001 -0.00166666671 0
0.0966666639 -0.00166666671 0
0.0933333337 -0.00166666671 0
0.0900000036 -0.00166666671 0
0.086666666 -0.00166666671 0
0.0833333358 -0.00166666671 0
0.0799999982 -0.00166666671 0
0.0766666681 -0.00166666671 0
0.0733333305 -0.00166666671 0
0.0700000003 -0.00166666671 0
0.0666666701 -0.00166666671 0
0.0633333325 -0.00166666671 0
0.0599999987 -0.00166666671 0
0.0566666685 -0.00166666671 0
0.0533333346 -0.00166666671 0
0.0500000007 -0.00166666671 0
0.0466666669 -0.00166666671 0
0.043333333 -0.00166666671 0
0.0399999991 -0.00166666671 0
0.0366666652 -0.00166666671 0
0.0333333351 -0.00166666671 0
0.0299999993 -0.00166666671 0
0.0266666673 -0.00166666671 0
0.0233333334 -0.00166666671 0
0.0199999996 -0.00166666671 0
0.0166666675 -0.00166666671 0
0.0133333337 -0.00166666671 0
0.00999999978 -0.00166666671 0
0.00666666683 -0.00166666671 0
0.00333333341 -0.00166666671 0
0 -0.00166666671 0
0.100000001 -0.00499999989 0
0.0966666639 -0.00499999989 0
0.0933333337 -0.00499999989 0
0.0900000036 -0.00499999989 0
0.086666666 -0.00499999989 0
0.0833333358 -0.00499999989 0
0.0799999982 -0.00499999989 0
0.0766666681 -0.00499999989 0
0.0733333305 -0.00499999989 0
0.0700000003 -0.00499999989 0
0.0666666701 -0.00499999989 0
0.0633333325 -0.00499999989 0
0.0599999987 -0.00499999989 0
0.0566666685 -0.00499999989 0
0.0533333346 -0.00499999989 0
0.0500000007 -0.00499999989 0
0.0466666669 -0.00499999989 0
0.043333333 -0.00499999989 0
0.0399999991 -0.00499999989 0
0.0366666652 -0.00499999989 0
0.0333333351 -0.00499999989 0
0.0299999993 -0.00499999989 0
0.0266666673 -0.00499999989 0
0.0233333334 -0.00499999989 0
0.0199999996 -0.00499999989 0
0.0166666675 -0.00499999989 0
0.0133333337 -0.00499999989 0
0.00999999978 -0.00499999989 0
0.00666666683 -0.00499999989 0
0.00333333341 -0.00499999989 0
0 -0.00499999989 0
0.100000001 -0.00833333377 0
0.0966666639 -0.00833333377 0
0.0933333337 -0.00833333377 0
0.0900000036 -0.00833333377 0
0.086666666 -0.00833333377 0
0.0833333358 -0.00833333377 0
0.0799999982 -0.00833333377 0
0.0766666681 -0.00833333377 0
0.0733333305 -0.00833333377 0
0.0700000003 -0.00833333377 0
0.0666666701 -0.00833333377 0
0.0633333325 -0.00833333377 0
0.0599999987 -0.00833333377 0
0.0566666685 -0.00833333377 0
0.0533333346 -0.00833333377 0
0.0500000007 -0.00833333377 0
0.0466666669 -0.00833333377 0
0.043333333 -0.00833333377 0
0.0399999991 -0.00833333377 0
0.0366666652 -0.00833333377 0
0.0333333351 -0.00833333377 0
0.0299999993 -0.00833333377 0
0.0266666673 -0.00833333377 0
0.0233333334 -0.00833333377 0
0.0199999996 -0.00833333377 0
0.0166666675 -0.00833333377 0
0.0133333337 -0.00833333377 0
0.00999999978 -0.00833333377 0
0.00666666683 -0.00833333377 0
0.00333333341 -0.00833333377 0
0 -0.00833333377 0
0.100000001 -0.0116666667 0
0.0966666639 -0.0116666667 0
0.0933333337 -0.0116666667 0
0.0900000036 -0.0116666667 0
0.086666666 -0.0116666667 0
0.0833333358 -0.0116666667 0
0.0799999982 -0.0116666667 0
0.0766666681 -0.0116666667 0
0.0733333305 -0.0116666667 0
0.0700000003 -0.0116666667 0
0.0666666701 -0.0116666667 0
0.0633333325 -0.0116666667 0
0.0599999987 -0.0116666667 0
0.0566666685 -0.0116666667 0
0.0533333346 -0.0116666667 0
0.0500000007 -0.0116666667 0
0.0466666669 -0.0116666667 0
0.043333333 -0.0116666667 0
0.0399999991 -0.0116666667 0
0.0366666652 -0.0116666667 0
0.0333333351 -0.0116666667 0
0.0299999993 -0.0116666667 0
0.0266666673 -0.0116666667 0
0.0233333334 -0.0116666667 0
0.0199999996 -0.0116666667 0
0.0166666675 -0.0116666667 0
0.0133333337 -0.0116666667 0
0.00999999978 -0.0116666667 0
0.00666666683 -0.0116666667 0
0.00333333341 -0.0116666667 0
0 -0.0116666667 0
0.100000001 -0.0149999997 0
0.0966666639 -0.0149999997 0
0.0933333337 -0.0149999997 0
0.0900000036 -0.0149999997 0
0.086666666 -0.0149999997 0
0.0833333358 -0.0149999997 0
0.0799999982 -0.0149999997 0
0.0766666681 -0.0149999997 0
0.0733333305 -0.0149999997 0
0.0700000003 -0.0149999997 0
0.0666666701 -0.0149999997 0
0.0633333325 -0.0149999997 0
0.0599999987 -0.0149999997 0
0.0566666685 -0.0149999997 0
0.0533333346 -0.0149999997 0
0.0500000007 -0.0149999997 0
0.0466666669 -0.0149999997 0
0.043333333 -0.0149999997 0
0.0399999991 -0.0149999997 0
0.0366666652 -0.0149999997 0
0.0333333351 -0.0149999997 0
0.0299999993 -0.0149999997 0
0.0266666673 -0.0149999997 0
0.0233333334 -0.0149999997 0
0.0199999996 -0.0149999997 0
0.0166666675 -0.0149999997 0
0.0133333337 -0.0149999997 0
0.00999999978 -0.0149999997 0
0.00666666683 -0.0149999997 0
0.00333333341 -0.0149999997 0
0 -0.0149999997 0
0.100000001 -0.0183333326 0
0.0966666639 -0.0183333326 0
0.0933333337 -0.0183333326 0
0.0900000036 -0.0183333326 0
0.086666666 -0.0183333326 0
0.0833333358 -0.0183333326 0
0.0799999982 -0.0183333326 0
0.0766666681 -0.0183333326 0
0.0733333305 -0.0183333326 0
0.0700000003 -0.0183333326 0
0.0666666701 -0.0183333326 0
0.0633333325 -0.0183333326 0
0.0599999987 -0.0183333326 0
0.0566666685 -0.0183333326 0
0.0533333346 -0.0183333326 0
0.0500000007 -0.0183333326 0
0.0466666669 -0.0183333326 0
0.043333333 -0.0183333326 0
0.0399999991 -0.0183333326 0
0.0366666652 -0.0183333326 0
0.0333333351 -0.0183333326 0
0.0299999993 -0.0183333326 0
0.0266666673 -0.0183333326 0
0.0233333334 -0.0183333326 0
0.0199999996 -0.0183333326 0
0.0166666675 -0.0183333326 0
0.0133333337 -0.0183333326 0
0.00999999978 -0.0183333326 0
0.00666666683 -0.0183333326 0
0.00333333341 -0.0183333326 0
0 -0.0183333326 0
0.100000001 -0.0216666665 0
0.0966666639 -0.0216666665 0
0.0933333337 -0.0216666665 0
0.0900000036 -0.0216666665 0
0.086666666 -0.0216666665 0
0.0833333358 -0.0216666665 0
0.0799999982 -0.0216666665 0
0.0766666681 -0.0216666665 0
0.0733333305 -0.0216666665 0
0.0700000003 -0.0216666665 0
0.0666666701 -0.0216666665 0
0.0633333325 -0.0216666665 0
0.0599999987 -0.0216666665 0
0.0566666685 -0.0216666665 0
0.0533333346 -0.0216666665 0
0.0500000007 -0.0216666665 0
0.0466666669 -0.0216666665 0
0.043333333 -0.0216666665 0
0.0399999991 -0.0216666665 0
0.0366666652 -0.0216666665 0
0.0333333351 -0.0216666665 0
0.0299999993 -0.0216666665 0
0.0266666673 -0.0216666665 0
0.0233333334 -0.0216666665 0
0.0199999996 -0.0216666665 0
0.0166666675 -0.0216666665 0
0.0133333337 -0.0216666665 0
0.00999999978 -0.0216666665 0
0.00666666683 -0.0216666665 0
0.00333333341 -0.0216666665 0
0 -0.0216666665 0
0.100000001 -0.0250000004 0
0.0966666639 -0.0250000004 0
0.0933333337 -0.0250000004 0
0.0900000036 -0.0250000004 0
0.086666666 -0.0250000004 0
0.0833333358 -0.0250000004 0
0.0799999982 -0.0250000004 0
0.0766666681 -0.0250000004 0
0.0733333305 -0.0250000004 0
0.0700000003 -0.0250000004 0
0.0666666701 -0.0250000004 0
0.0633333325 -0.0250000004 0
0.0599999987 -0.0250000004 0
0.0566666685 -0.0250000004 0
0.0533333346 -0.0250000004 0
0.0500000007 -0.0250000004 0
0.0466666669 -0.0250000004 0
0.043333333 -0.0250000004 0
0.0399999991 -0.0250000004 0
0.0366666652 -0.0250000004 0
0.0333333351 -0.0250000004 0
0.0299999993 -0.0250000004 0
0.0266666673 -0.0250000004 0
0.0233333334 -0.0250000004 0
0.0199999996 -0.0250000004 0
0.0166666675 -0.0250000004 0
0.0133333337 -0.0250000004 0
0.00999999978 -0.0250000004 0
0.00666666683 -0.0250000004 0
0.00333333341 -0.0250000004 0
0 -0.0250000004 0
0.100000001 -0.0283333343 0
0.0966666639 -0.0283333343 0
0.0933333337 -0.0283333343 0
0.0900000036 -0.0283333343 0
0.086666666 -0.0283333343 0
0.0833333358 -0.0283333343 0
0.0799999982 -0.0283333343 0
0.0766666681 -0.0283333343 0
0.0733333305 -0.0283333343 0
0.0700000003 -0.0283333343 0
0.0666666701 -0.0283333343 0
0.0633333325 -0.0283333343 0
0.0599999987 -0.0283333343 0
0.0566666685 -0.0283333343 0
0.0533333346 -0.0283333343 0
0.0500000007 -0.0283333343 0
0.0466666669 -0.0283333343 0
0.043333333 -0.0283333343 0
0.0399999991 -0.0283333343 0
0.0366666652 -0.0283333343 0
0.0333333351 -0.0283333343 0
0.0299999993 -0.0283333343 0
0.0266666673 -0.0283333343 0
0.0233333334 -0.0283333343 0
0.0199999996 -0.0283333343 0
0.0166666675 -0.0283333343 0
0.0133333337 -0.0283333343 0
0.00999999978 -0.0283333343 0
0.00666666683 -0.0283333343 0
0.00333333341 -0.0283333343 0
0 -0.0283333343 0
0.100000001 -0.0316666663 0
[...]
POINT_DATA 961
SCALARS Temp float 1
LOOKUP_TABLE default
312.4512882453307
280.85016522033766
256.8730019172372
239.75668426648903
228.27909272997252
221.0521377381816
216.77636271353092
214.3958442161073
213.1460241262563
212.52565844709173
212.23371198939006
212.10307172106351
212.04734794845623
212.02471828151832
212.01622403671024
212.01408308163442
212.0162240317943
212.0247182666479
212.04734794938022
212.10307172396026
212.2337115433227
212.52565815337624
213.14602395255642
214.3958418351039
216.77636154033786
221.05212595337605
228.27908218157552
239.75665093845367
256.8729692044491
280.85015488711076
312.4512306490955
280.8502532852473
248.12362542317484
223.29181704856296
205.56477139688474
193.6771117915723
186.19155659236975
181.76251645266814
179.29650605816667
178.0017101915234
177.35897311585944
177.05647589068053
176.92110409570247
176.8633577590246
176.83990500054492
176.83110122444947
176.82888215787392
176.83110121931185
176.83990498499773
176.86335775960103
176.92110409767758
177.05647542581121
177.35897280486932
178.0017099954322
179.29650355382773
181.76251515155576
186.19154419315313
193.67710043824962
205.56473583045718
223.29178092774941
248.12359712264742
280.85015853552545
256.8730873591744
223.29182212708784
197.8096948301683
179.61662780405757
167.41497955365452
159.73060866584592
155.18319568831666
152.65082644704916
151.3209352425004
150.6606452953691
150.34982332846243
150.2106972129777
150.1513370693415
150.12722402500907
150.11817075383777
150.11588853063256
150.1181707484342
150.12722400864087
150.15133706886363
150.21069721213783
150.34982284334242
150.66064495741782
151.32093499682995
152.65082377260543
155.18319412224423
159.73059543182305
167.41496679854646
179.6165888962288
197.80965160177934
223.29178097394478
256.87297244530544
239.75677554357495
205.56478406298092
179.61663686477152
161.08837407348625
148.65984003878106
140.83102828642558
136.19709229108145
133.61589696299836
132.26000135823733
131.58661051537115
131.2695291014049
131.12755906217006
131.06696745787252
131.04234699819287
131.0331007947856
131.03076953543956
131.03310078908927
131.0423469809179
131.06696745582698
131.12755905717495
131.26952859587428
131.5866101446892
132.2600010463206
133.61589409709552
136.19709038975876
140.83101415650054
148.65982572268092
161.0883317751264
179.61658801696865
205.56473494696186
239.75665119596025
228.27921455571962
193.67715439485613
167.415019195702
148.6598711735156
136.0768858100716
128.14908615094146
123.45540567403198
120.84021773840067
119.46605960281926
118.7833847118915
118.46182650110529
118.31780361577266
118.25631496148875
118.2313216252617
118.22193254296934
118.21956478733347
118.22193253697681
118.2313216070729
118.25631495762947
118.31780360603472
118.46182597661276
118.78338430770887
119.46605922113214
120.8402146894856
123.45540344226474
128.14907122651312
136.0768701458545
148.65982631415184
167.41496663508926
193.67710079882355
228.27908497843595
221.05226790016386
186.19160313987857
159.73065183999083
140.8310630020506
128.14908960699557
120.15734720483414
115.42472963105583
112.78717196726447
111.40087121706651
110.71195695379978
110.38735702077918
110.241923937308
110.17981232409423
110.15455732199212
110.14506704558234
110.14267328755056
110.14506703931147
110.1545573029544
110.17981231843048
110.24192392294577
110.38735648010596
110.71195651963916
111.40087077299773
112.78716876591787
115.42472712613946
120.15733167604462
128.14907297410372
140.8310164637444
159.73059705527692
186.19154704248572
221.05213544632483
216.77650303136858
181.76257332987294
155.18324983103307
136.1971384731371
123.45542077491564
115.4247414240388
110.66817427561433
108.01670509807771
106.62276381961776
105.9298751695281
105.60331325305309
105.45695898727098
105.39443530721063
105.36900511968123
105.35944636877423
105.35703489521487
105.35944636225173
105.36900509989526
105.39443529991362
105.45695896885829
105.60331269960926
105.92987471131832
106.62276332641291
108.01670178380314
110.66817157360134
115.42472548913274
123.45540352528906
136.19709093296382
155.18319379068953
181.76251588399742
216.77636903205448
214.39597762159175
179.29656044689582
152.65087969939293
133.6159428272989
120.8402326815442
112.78718369395679
108.0167050293689
105.35705673118542
103.95856468290114
103.2632764801029
102.93551334286194
102.78858705454661
102.72580387068425
102.70026185008363
102.690658860871
102.68823585407479
102.69065885410458
102.70026182961209
102.72580386191409
102.78858703270741
102.93551277977622
103.26327600391916
103.95856415426282
105.35705334044076
108.01670219878822
112.78716751011198
120.84021507141985
133.61589472831574
152.65082298584608
179.29650230062552
214.39584282047358
213.14615253045616
178.00176452313744
151.3209899575853
132.26004917202556
119.4660766739736
111.40088517320483
106.6227660084682
103.95856695700435
102.55750735260442
101.86084528031192
101.53238385695302
101.38511986947539
101.32218110340999
101.29657102623955
101.28694075900617
101.28451058061178
101.28694075192158
101.29657100495423
101.32218109299579
101.385119844251
101.53238328591875
101.86084478999935
102.5575067980181
103.95856351512863
106.6227630962902
111.40086884219731
119.4660588602319
132.26000077104126
151.32093289151686
178.0017060185163
213.1460173205868
212.52578590675864
177.35902640956203
150.66069845478512
131.58665674532037
118.78340021102788
110.71196935802828
105.92987580232347
103.26327719431389
101.86084371225608
101.16343496973364
100.83458785666168
100.68713423715877
100.62410664419339
100.5984570807037
100.5888107605987
100.58637632337158
100.58881075288394
100.59845705791294
100.62410663090792
100.68713420670407
100.83458727580022
101.16343446330693
101.86084313134751
103.2632737081232
105.9298728249901
110.71195292355345
118.78338226202676
131.5866081581993
150.66064117796034
177.35896769282772
212.52565046117533
212.23384687043014
177.05652733489634
150.34987322342002
131.26957173220484
118.46183828247496
110.38736564435114
105.60331005289707
102.93551018693468
101.53237839053956
100.83458394285287
100.50553419834166
100.35797920455573
100.29490328644958
100.26923187103287
100.25957653238831
100.25713967923319
100.25957652308811
100.26923184451336
100.2949032661327
100.35797916179824
100.50553359669355
100.83458340369513
101.53237775996791
102.93550662724556
105.60330697444712
110.38734907137807
118.46182016148464
131.26952293310066
150.3498157118854
177.05646837782743
212.23371117530985
212.10319683401394
176.92114488506425
150.21073602599336
131.12759026909626
118.31780368657559
110.2419206216239
105.45694367257705
102.78857165846718
101.38510207488804
100.687117938334
100.35796678904174
100.21036014141048
100.14725914592914
100.12157618646175
100.11191600748114
100.10947784372435
100.11191599396551
100.12157614995357
100.14725910654263
100.2103600650643
100.35796613125628
100.68711731035334
101.3851013103391
102.78856790573111
105.45694033078665
110.24190370435481
118.31778514170281
131.12754097039854
150.21067796177974
176.9210853515782
212.10306056322827
212.04742892009554
176.8633622896082
150.15133973046756
131.06696175079563
118.25627727783618
110.17977057166979
105.39438104129431
102.72574915306585
101.32212372959557
100.62405059474676
100.29485101365256
100.14721923408506
100.08410580418195
100.05841701297065
100.04875434732085
100.04631550070468
100.04875432276518
100.05841694993194
100.08410571317118
100.1472190650515
100.29485019852106
100.62404971335508
101.3221225772092
102.72574483623954
105.39437692122509
110.17975263432109
118.25625746689728
131.0669109614618
150.15128000777486
176.86330101369657
212.0472909206403
212.02469653108685
176.83980333378904
150.1271180002824
131.04222954963558
118.2311696984346
110.1543993867951
105.36883322088475
102.7000884525636
101.29639424418222
100.59828113741676
100.26905939616243
100.12141589078655
100.05829654145316
100.03260491745385
100.02294101992017
100.02050182489164
100.02294096745106
100.03260478623464
100.05829631489622
100.12141547282609
100.26905814924115
100.59827954596804
101.29639198435896
102.70008249829628
105.36882680737644
110.15437840760602
118.23114607117446
131.04217423351213
150.12705320891519
176.83973670893
212.02455322377332
212.01590727594942
176.83069295193127
150.11774560731925
131.03265520503427
118.22144545995317
110.14456855510632
105.35892987043867
102.69013794432124
101.28641443712198
100.58828394112032
100.25905233947486
100.11140349148269
100.0482813780517
100.02258839696991
100.01292389067763
100.01048450616119
100.01292377054004
100.02258809751409
100.04828080922724
100.1114024294275
100.25904994842415
100.58828042538136
101.28640911332462
102.6901273745955
105.35891688464719
110.14453873538835
118.22141060924612
131.03258645304822
150.1176656689072
176.8306102745453
212.01574801914427
212.01293773788458
176.8275949541646
150.11455402126435
131.02939058753893
118.21812527681507
110.14120754429655
105.35554003119971
102.68672859141824
101.28299244303989
100.58485411939952
100.25561788868652
100.10796642782756
100.04484290769982
100.01914920623905
100.00948435431943
100.00704482801892
100.0094840774933
100.01914850978523
100.044841511176
100.1079637672619
100.2556125850853
100.58484558573464
101.28297894933013
102.6867054636396
105.35550883949108
110.14115285391158
118.218058442032
131.02928315508953
150.1144301516513
176.82746550725332
212.01273194067656
212.01274027350377
176.82738800220366
150.11433472259594
131.02915705016957
118.21787696559639
110.14094528155829
105.35526568056108
102.68644457426409
101.28270125921988
100.58455799143842
100.25531857636892
100.107665194479
100.04454058422849
100.0188462953766
100.00918113265347
100.00674142286411
100.00918051039146
100.01884470600741
100.04453727741735
100.10765874239327
100.25530617581332
100.58453691245373
101.28266684470523
102.68638857815215
105.35518590048531
110.14082308548291
118.21772208415517
131.02894194023887
150.1140875594996
176.82712663993664
212.01240298410355
212.01501636795754
176.82975997576747
150.11675907192682
131.0316078193672
118.22033570080983
110.14340059125553
105.35771209201019
102.68888085255655
101.2851286088111
100.58697858332425
100.25773459854346
100.11007839893468
100.046952180955
100.02125702475776
100.01159138821788
100.00915134969934
100.01159004315213
100.0212535275077
100.04694468114809
100.11006338309677
100.25770570626648
100.58692754333818
101.28504292826605
102.68874238366415
105.35750777697815
110.14310214242133
118.21994734019523
131.03110362986678
150.11617791430191
176.82913928592987
212.01432022850392
212.02185065058163
176.8368258173926
150.1239777577507
131.0389080570765
118.22766574613203
110.15072812719785
105.36502143877799
102.69616801578842
101.29239611968067
100.59423144137904
100.26497779213919
100.11731581438943
100.05418641150838
100.02848959744213
100.01882307908521
100.01638241646826
100.0188203030446
100.02848224062711
100.0541701909278
100.11728245100089
100.26491249867856
100.59411232324092
101.29219068918985
102.69583189337303
105.3645116485425
110.14998844102057
118.22668275431147
131.03765746550303
150.1225255372546
176.8352622062006
212.0202108592624
212.03896351096162
176.85451328360125
150.1420273328161
131.057144648162
118.24596137487248
110.16900621091872
105.38324807047094
102.71433784959976
101.31051846375256
100.61232003040536
100.28304508836457
100.13537092017727
100.07223507974969
100.04653505523115
100.03686689699487
100.03442509120096
100.03686144897746
100.04652033191668
100.07220173863115
100.13530042523398
100.28290381189407
100.61205439108542
101.31004756631845
102.71355118028012
105.38202396192699
110.16721116636451
118.2435285804804
131.05404597907895
150.13839387288854
176.85057201361545
212.03493855330083
212.0793141197208
176.89618592285206
150.18452052783226
131.10002924497184
118.28893792981553
110.21190620498548
105.42600707107192
102.75695656806961
101.3530272066251
100.65475465729286
100.3254351877028
100.1777366803377
100.11458854819412
100.08888265619734
100.079211622458
100.07676784598506
100.07920148377745
100.08885471487793
100.11452360915085
100.17759551835655
100.32514463923323
100.65419180882368
101.35200057821156
102.75519775402769
105.42319768972354
110.20770914298949
118.28313310069666
131.0925562886489
150.17565710142682
176.88649809401866
212.06950869750565
212.16982265190623
176.98968388722983
150.27976386144294
131.196026733091
118.38502603050065
110.30774102796846
105.52148463938549
102.85211063336709
101.44794375979016
100.74951989679656
100.4201140976487
100.27237063708165
100.20920082470059
100.18348503127628
100.17380933405722
100.17136239041747
100.17379147925487
100.18343487554358
100.20908129288172
100.27210360557228
100.41954900953833
100.74839205876123
101.44582486440979
102.84837742410237
105.51535365695725
110.29836559499505
118.37176908174814
131.1786888299187
150.25892686659105
176.9667164136439
212.14661639066506
212.36311059638004
177.18922425725296
150.4827880534859
131.40035600291952
118.5892812342906
110.51128373246843
105.72419442074397
103.05413118733755
101.64949194377273
100.95078475319272
100.62122597040018
100.47340681126049
100.41020219626068
100.38447120999069
100.3747886175431
100.37233696361288
100.37475891111724
100.38438622565108
100.40999476638956
100.47293103368241
100.62019090375256
100.948656784413
101.64537104160168
103.04664898015473
105.71153394141922
110.49139227718776
118.5604467083016
131.3618959730964
150.43584794709747
177.1369790447473
212.31024487111515
212.754722853705
177.5932675456317
150.89327929423254
131.81276657556631
119.00095031529263
110.92117752003064
106.13231072259678
103.46090710100846
102.05541567033869
101.35622998313661
101.02642770576952
100.87849444640993
100.81523998224218
100.78948824917337
100.77979655203151
100.77733847676068
100.77974991861329
100.78935255351135
100.81490133363812
100.87769816288615
101.02464860242556
101.35246538523494
102.04790020065111
103.44682488399852
106.1077045464983
110.88131016136086
118.94148630230131
131.73153918866487
150.79229194521488
177.4795422876584
212.63927228470018
213.50573881193455
178.36752475704262
151.67840354258982
132.59987731843756
119.78539098855536
111.70164875064985
106.90935337980576
104.23561687726048
102.82876395009468
102.12886790242335
101.7987271591544
101.65064471335451
101.5873287984995
101.56155288001507
101.55185087178305
101.54938489158477
101.55178187335643
101.56134898997311
101.58680960625388
101.64939584102747
101.7958667662244
102.12264813453739
102.81597420964394
104.21087515893456
106.86462319827876
111.626626292076
119.66969358062298
132.43715414397494
151.4713832902646
178.13092848439794
213.2643971307478
214.86634404395713
179.7686669424345
153.09546829590926
134.016621121511
121.1947983432671
113.10314619027196
108.30502759041971
105.6277942434744
104.2190940047919
103.51831452918574
103.18778574320028
103.03954558597181
102.97617002546366
102.95037259162794
102.94066159984472
102.93818707617486
102.94056545896665
102.95008463289423
102.97542367649828
103.03771384305712
103.18349596374942
103.50875249928748
104.19888097064351
105.58746483800603
108.22954396133402
112.97161157170244
120.983797098051
133.70871515922292
152.6918218774137
179.298141145429
214.38315179791942
217.19251599340234
182.1598092571583
155.50419751691896
136.4155387568016
123.57682163233875
115.47149762660739
110.66525950190466
107.98384052948155
106.573206355336
105.87161591637435
105.54077917703871
105.39243463413673
105.32902853235846
105.30322355541713
105.29350932397489
105.29102721405079
105.29338325549547
105.30284164667854
105.3280238300426
105.38992643713777
105.53479216446591
105.8579805494304
106.5436688582337
107.92321918145517
110.54796673380345
115.25892627823504
123.21955063665543
135.86887200311799
154.7567409450698
181.26377110938333
216.26271260243954
220.94716583946015
186.00851607859474
159.3523278336232
140.22817901784094
127.3556683050663
119.2328234303069
114.41861614013546
111.734063468478
110.32239744530688
109.62056908888644
109.28973774473704
109.14144384634497
109.07807820568904
109.05229608530652
109.04259053889693
109.04010408859301
109.04243505158438
109.05182081700868
109.07681302797465
109.13824208629225
109.28197693097407
109.60258176928411
110.28263621907568
111.65048452831209
114.25212847496687
118.91982052370176
126.80410925449857
139.32738010145405
158.0443142151924
184.3644218988482
219.21663667777236
226.70944590825954
191.84838867239117
165.12629007670606
145.8898313884511
132.97989140935718
124.84544884492963
120.02965286366812
117.34630042428982
115.93610743688417
115.23534828820853
114.90515400622007
114.75719709076608
114.69399463547958
114.66828536776698
114.65860761978827
114.65612274722054
114.6584273180403
114.66773077433194
114.69250572493408
114.75339149032837
114.89582520218114
115.21344547239946
115.88695390888815
117.24108522131864
119.81525740299422
124.43025927874092
132.21707800019234
144.5670153617737
162.9684848765749
188.9424952985986
223.50967233378077
235.0862135490532
200.40296492398565
173.06818502888095
153.75882724433905
140.84330023057012
132.72316296600314
127.9213393659298
125.24776300961983
123.84343888222887
123.14586939304644
122.8172808838907
122.67008088259321
122.60721521052925
122.58164799443124
122.57202422207622
122.56954901556826
122.57182747205921
122.58104168604113
122.60557912319905
122.66587398165598
122.80689631557007
123.12129539872514
123.78777250231137
125.12724835766961
127.67221146958681
132.231288997954
139.91434679173528
152.07077957153155
170.1176558496297
195.06852910045163
229.30489388698135
250.2163345601613
210.4741425243885
183.28318029665792
164.03743493897898
151.2078450829721
143.14826510141046
138.38463818377443
135.73308399237627
134.34055445351765
133.64894072098372
133.32318931170752
133.17725632129705
133.11493932199062
133.08960274887747
133.0800597770444
133.0776047644308
133.07985877504802
133.08897892984743
133.11326564923726
133.17293559249995
133.3124979141037
133.6235735779846
134.28292726207155
135.60781890411593
138.1244313604382
142.6310916840181
150.22114934334206
162.21901656617104
179.96232818051695
204.5439473309631
232.87480474583361
