# vtk DataFile Version 2.0
Unstructured Grid Example
ASCII
DATASET UNSTRUCTURED_GRID

POINTS 961 float
0.100000001 0.00499999989 0
0.0966666639 0.00499999989 0
0.0933333337 0.00499999989 0
0.0900000036 0.00499999989 0
0.086666666 0.00499999989 0
0.0833333358 0.00499999989 0
0.0799999982 0.00499999989 0
0.0766666681 0.00499999989 0
0.0733333305 0.00499999989 0
0.0700000003 0.00499999989 0
0.0666666701 0.00499999989 0
0.0633333325 0.00499999989 0
0.0599999987 0.00499999989 0
0.0566666685 0.00499999989 0
0.0533333346 0.00499999989 0
0.0500000007 0.00499999989 0
0.0466666669 0.00499999989 0
0.043333333 0.00499999989 0
0.0399999991 0.00499999989 0
0.0366666652 0.00499999989 0
0.0333333351 0.00499999989 0
0.0299999993 0.00499999989 0
0.0266666673 0.00499999989 0
0.0233333334 0.00499999989 0
0.0199999996 0.00499999989 0
0.0166666675 0.00499999989 0
0.0133333337 0.00499999989 0
0.00999999978 0.00499999989 0
0.00666666683 0.00499999989 0
0.00333333341 0.00499999989 0
0 0.00499999989 0
0.100000001 0.00166666671 0
0.0966666639 0.00166666671 0
0.0933333337 0.00166666671 0
0.0900000036 0.00166666671 0
0.086666666 0.00166666671 0
0.0833333358 0.00166666671 0
0.0799999982 0.00166666671 0
0.0766666681 0.00166666671 0
0.0733333305 0.00166666671 0
0.0700000003 0.00166666671 0
0.0666666701 0.00166666671 0
0.0633333325 0.00166666671 0
0.0599999987 0.00166666671 0
0.0566666685 0.00166666671 0
0.0533333346 0.00166666671 0
0.0500000007 0.00166666671 0
0.0466666669 0.00166666671 0
0.043333333 0.00166666671 0
0.0399999991 0.00166666671 0
0.0366666652 0.00166666671 0
0.0333333351 0.00166666671 0
0.0299999993 0.00166666671 0
0.0266666673 0.00166666671 0
0.0233333334 0.00166666671 0
0.0199999996 0.00166666671 0
0.0166666675 0.00166666671 0
0.0133333337 0.00166666671 0
0.00999999978 0.00166666671 0
0.00666666683 0.00166666671 0
0.00333333341 0.00166666671 0
0 0.00166666671 0
0.100000001 -0.00166666671 0
0.0966666639 -0.00166666671 0
0.0933333337 -0.00166666671 0
0.0900000036 -0.00166666671 0
0.086666666 -0.00166666671 0
0.0833333358 -0.00166666671 0
0.0799999982 -0.00166666671 0
0.0766666681 -0.00166666671 0
0.0733333305 -0.00166666671 0
0.0700000003 -0.00166666671 0
0.0666666701 -0.00166666671 0
0.0633333325 -0.00166666671 0
0.0599999987 -0.00166666671 0
0.0566666685 -0.00166666671 0
0.0533333346 -0.00166666671 0
0.0500000007 -0.00166666671 0
0.0466666669 -0.00166666671 0
0.043333333 -0.00166666671 0
0.0399999991 -0.00166666671 0
0.0366666652 -0.00166666671 0
0.0333333351 -0.00166666671 0
0.0299999993 -0.00166666671 0
0.0266666673 -0.00166666671 0
0.0233333334 -0.00166666671 0
0.0199999996 -0.00166666671 0
0.0166666675 -0.00166666671 0
0.0133333337 -0.00166666671 0
0.00999999978 -0.00166666671 0
0.00666666683 -0.00166666671 0
0.00333333341 -0.00166666671 0
0 -0.00166666671 0
0.100000001 -0.00499999989 0
0.0966666639 -0.00499999989 0
0.0933333337 -0.00499999989 0
0.0900000036 -0.00499999989 0
0.086666666 -0.00499999989 0
0.0833333358 -0.00499999989 0
0.0799999982 -0.00499999989 0
0.0766666681 -0.00499999989 0
0.0733333305 -0.00499999989 0
0.0700000003 -0.00499999989 0
0.0666666701 -0.00499999989 0
0.0633333325 -0.00499999989 0
0.0599999987 -0.00499999989 0
0.0566666685 -0.00499999989 0
0.0533333346 -0.00499999989 0
0.0500000007 -0.00499999989 0
0.0466666669 -0.00499999989 0
0.043333333 -0.00499999989 0
0.0399999991 -0.00499999989 0
0.0366666652 -0.00499999989 0
0.0333333351 -0.00499999989 0
0.0299999993 -0.00499999989 0
0.0266666673 -0.00499999989 0
0.0233333334 -0.00499999989 0
0.0199999996 -0.00499999989 0
0.0166666675 -0.00499999989 0
0.0133333337 -0.00499999989 0
0.00999999978 -0.00499999989 0
0.00666666683 -0.00499999989 0
0.00333333341 -0.00499999989 0
0 -0.00499999989 0
0.100000001 -0.00833333377 0
0.0966666639 -0.00833333377 0
0.0933333337 -0.00833333377 0
0.0900000036 -0.00833333377 0
0.086666666 -0.00833333377 0
0.0833333358 -0.00833333377 0
0.0799999982 -0.00833333377 0
0.0766666681 -0.00833333377 0
0.0733333305 -0.00833333377 0
0.0700000003 -0.00833333377 0
0.0666666701 -0.00833333377 0
0.0633333325 -0.00833333377 0
0.0599999987 -0.00833333377 0
0.0566666685 -0.00833333377 0
0.0533333346 -0.00833333377 0
0.0500000007 -0.00833333377 0
0.0466666669 -0.00833333377 0
0.043333333 -0.00833333377 0
0.0399999991 -0.00833333377 0
0.0366666652 -0.00833333377 0
0.0333333351 -0.00833333377 0
0.0299999993 -0.00833333377 0
0.0266666673 -0.00833333377 0
0.0233333334 -0.00833333377 0
0.0199999996 -0.00833333377 0
0.0166666675 -0.00833333377 0
0.0133333337 -0.00833333377 0
0.00999999978 -0.00833333377 0
0.00666666683 -0.00833333377 0
0.00333333341 -0.00833333377 0
0 -0.00833333377 0
0.100000001 -0.0116666667 0
0.0966666639 -0.0116666667 0
0.0933333337 -0.0116666667 0
0.0900000036 -0.0116666667 0
0.086666666 -0.0116666667 0
0.0833333358 -0.0116666667 0
0.0799999982 -0.0116666667 0
0.0766666681 -0.0116666667 0
0.0733333305 -0.0116666667 0
0.0700000003 -0.0116666667 0
0.0666666701 -0.0116666667 0
0.0633333325 -0.0116666667 0
0.0599999987 -0.0116666667 0
0.0566666685 -0.0116666667 0
0.0533333346 -0.0116666667 0
0.0500000007 -0.0116666667 0
0.0466666669 -0.0116666667 0
0.043333333 -0.0116666667 0
0.0399999991 -0.0116666667 0
0.0366666652 -0.0116666667 0
0.0333333351 -0.0116666667 0
0.0299999993 -0.0116666667 0
0.0266666673 -0.0116666667 0
0.0233333334 -0.0116666667 0
0.0199999996 -0.0116666667 0
0.0166666675 -0.0116666667 0
0.0133333337 -0.0116666667 0
0.00999999978 -0.0116666667 0
0.00666666683 -0.0116666667 0
0.00333333341 -0.0116666667 0
0 -0.0116666667 0
0.100000001 -0.0149999997 0
0.0966666639 -0.0149999997 0
0.0933333337 -0.0149999997 0
0.0900000036 -0.0149999997 0
0.086666666 -0.0149999997 0
0.0833333358 -0.0149999997 0
0.0799999982 -0.0149999997 0
0.0766666681 -0.0149999997 0
0.0733333305 -0.0149999997 0
0.0700000003 -0.0149999997 0
0.0666666701 -0.0149999997 0
0.0633333325 -0.0149999997 0
0.0599999987 -0.0149999997 0
0.0566666685 -0.0149999997 0
0.0533333346 -0.0149999997 0
0.0500000007 -0.0149999997 0
0.0466666669 -0.0149999997 0
0.043333333 -0.0149999997 0
0.0399999991 -0.0149999997 0
0.0366666652 -0.0149999997 0
0.0333333351 -0.0149999997 0
0.0299999993 -0.0149999997 0
0.0266666673 -0.0149999997 0
0.0233333334 -0.0149999997 0
0.0199999996 -0.0149999997 0
0.0166666675 -0.0149999997 0
0.0133333337 -0.0149999997 0
0.00999999978 -0.0149999997 0
0.00666666683 -0.0149999997 0
0.00333333341 -0.0149999997 0
0 -0.0149999997 0
0.100000001 -0.0183333326 0
0.0966666639 -0.0183333326 0
0.0933333337 -0.0183333326 0
0.0900000036 -0.0183333326 0
0.086666666 -0.0183333326 0
0.0833333358 -0.0183333326 0
0.0799999982 -0.0183333326 0
0.0766666681 -0.0183333326 0
0.0733333305 -0.0183333326 0
0.0700000003 -0.0183333326 0
0.0666666701 -0.0183333326 0
0.0633333325 -0.0183333326 0
0.0599999987 -0.0183333326 0
0.0566666685 -0.0183333326 0
0.0533333346 -0.0183333326 0
0.0500000007 -0.0183333326 0
0.0466666669 -0.0183333326 0
0.043333333 -0.0183333326 0
0.0399999991 -0.0183333326 0
0.0366666652 -0.0183333326 0
0.0333333351 -0.0183333326 0
0.0299999993 -0.0183333326 0
0.0266666673 -0.0183333326 0
0.0233333334 -0.0183333326 0
0.0199999996 -0.0183333326 0
0.0166666675 -0.0183333326 0
0.0133333337 -0.0183333326 0
0.00999999978 -0.0183333326 0
0.00666666683 -0.0183333326 0
0.00333333341 -0.0183333326 0
0 -0.0183333326 0
0.100000001 -0.0216666665 0
0.0966666639 -0.0216666665 0
0.0933333337 -0.0216666665 0
0.0900000036 -0.0216666665 0
0.086666666 -0.0216666665 0
0.0833333358 -0.0216666665 0
0.0799999982 -0.0216666665 0
0.0766666681 -0.0216666665 0
0.0733333305 -0.0216666665 0
0.0700000003 -0.0216666665 0
0.0666666701 -0.0216666665 0
0.0633333325 -0.0216666665 0
0.0599999987 -0.0216666665 0
0.0566666685 -0.0216666665 0
0.0533333346 -0.0216666665 0
0.0500000007 -0.0216666665 0
0.0466666669 -0.0216666665 0
0.043333333 -0.0216666665 0
0.0399999991 -0.0216666665 0
0.0366666652 -0.0216666665 0
0.0333333351 -0.0216666665 0
0.0299999993 -0.0216666665 0
0.0266666673 -0.0216666665 0
0.0233333334 -0.0216666665 0
0.0199999996 -0.0216666665 0
0.0166666675 -0.0216666665 0
0.0133333337 -0.0216666665 0
0.00999999978 -0.0216666665 0
0.00666666683 -0.0216666665 0
0.00333333341 -0.0216666665 0
0 -0.0216666665 0
0.100000001 -0.0250000004 0
0.0966666639 -0.0250000004 0
0.0933333337 -0.0250000004 0
0.0900000036 -0.0250000004 0
0.086666666 -0.0250000004 0
0.0833333358 -0.0250000004 0
0.0799999982 -0.0250000004 0
0.0766666681 -0.0250000004 0
0.0733333305 -0.0250000004 0
0.0700000003 -0.0250000004 0
0.0666666701 -0.0250000004 0
0.0633333325 -0.0250000004 0
0.0599999987 -0.0250000004 0
0.0566666685 -0.0250000004 0
0.0533333346 -0.0250000004 0
0.0500000007 -0.0250000004 0
0.0466666669 -0.0250000004 0
0.043333333 -0.0250000004 0
0.0399999991 -0.0250000004 0
0.0366666652 -0.0250000004 0
0.0333333351 -0.0250000004 0
0.0299999993 -0.0250000004 0
0.0266666673 -0.0250000004 0
0.0233333334 -0.0250000004 0
0.0199999996 -0.0250000004 0
0.0166666675 -0.0250000004 0
0.0133333337 -0.0250000004 0
0.00999999978 -0.0250000004 0
0.00666666683 -0.0250000004 0
0.00333333341 -0.0250000004 0
0 -0.0250000004 0
0.100000001 -0.0283333343 0
0.0966666639 -0.0283333343 0
0.0933333337 -0.0283333343 0
0.0900000036 -0.0283333343 0
0.086666666 -0.0283333343 0
0.0833333358 -0.0283333343 0
0.0799999982 -0.0283333343 0
0.0766666681 -0.0283333343 0
0.0733333305 -0.0283333343 0
0.0700000003 -0.0283333343 0
0.0666666701 -0.0283333343 0
0.0633333325 -0.0283333343 0
0.0599999987 -0.0283333343 0
0.0566666685 -0.0283333343 0
0.0533333346 -0.0283333343 0
0.0500000007 -0.0283333343 0
0.0466666669 -0.0283333343 0
0.043333333 -0.0283333343 0
0.0399999991 -0.0283333343 0
0.0366666652 -0.0283333343 0
0.0333333351 -0.0283333343 0
0.0299999993 -0.0283333343 0
0.0266666673 -0.0283333343 0
0.0233333334 -0.0283333343 0
0.0199999996 -0.0283333343 0
0.0166666675 -0.0283333343 0
0.0133333337 -0.0283333343 0
0.00999999978 -0.0283333343 0
0.00666666683 -0.0283333343 0
0.00333333341 -0.0283333343 0
0 -0.0283333343 0
0.100000001 -0.0316666663 0
[...]
POINT_DATA 961
SCALARS Temp float 1
LOOKUP_TABLE default
318.63126714833317
287.1156447086066
262.93015607924576
245.39963606664506
233.41710065460384
225.69789888483177
221.0095422114273
218.32195271570558
216.8653922458042
216.11752602574995
215.7528685950129
215.58359710396252
215.50864791210304
215.4770635061047
215.46480363510764
215.46164476338132
215.4648036275856
215.47706348398924
215.50864791067787
215.58359710099663
215.75286801244025
216.1175256318121
216.86539196508986
218.3219498327202
221.0095406181089
225.6978856082954
233.41708863808768
245.39960020516025
262.9301207679311
287.1156314740411
318.63120664226506
287.11573283266296
254.47288269413218
229.42175586878358
211.2632334560006
198.85096120387033
190.85455406575724
185.99757977658524
183.21317070588236
181.70404507157014
180.92913923065393
180.55127206374615
180.37585675077796
180.29818192365948
180.2654467282427
180.2527394118249
180.24946512625863
180.2527394039668
180.26544670513084
180.2981819216676
180.37585674637057
180.55127145671756
180.92913881441945
181.7040447619489
183.21316767647835
185.99757803221502
190.85454010767117
198.85094831151673
211.26319524025774
229.4217170288557
254.472851447796
287.11563512024213
262.93024216925244
229.42176134914877
203.70469777917688
185.0618948216513
172.31725561599205
164.10570597769546
159.11734955094093
156.2571751613398
154.70672501554873
153.91045897914833
153.52210478374138
153.34178741815396
153.26192693694685
153.2282644511491
153.21519503719927
153.21182709390865
153.2151950289427
153.22826442684405
153.26192693345035
153.34178740988645
153.5221041505218
153.9104585291289
154.70672464581614
156.25717193359074
159.11734750728002
164.10569110509942
172.3172412298249
185.06185312211574
203.70465168722953
229.4217171009575
262.9301240430428
245.39972825503477
211.2632467671793
185.0619041131232
166.06581054361197
153.07775266554302
144.7079096549197
139.6223825556956
136.70585124988204
135.12447474555196
134.31212120826925
133.91581694599049
133.7317588032713
133.65021945686814
133.61584016077887
133.60248926793628
133.5990482573012
133.60248925924344
133.61584013516307
133.65021945118144
133.73175878942115
133.91581628641404
134.31212071755866
135.12447429637956
136.70584779971952
139.62238013551783
144.70789380092367
153.0777366145191
166.06576529711916
185.06185222923202
211.26319437120694
245.39960048739405
233.41722466962275
198.85100575024617
172.31729683590945
153.07778518351506
139.92119605812556
131.44113105705634
126.28750431473979
123.3311962350302
121.7278263610108
120.90394147736338
120.50189232500966
120.31510878208817
120.23233626852212
120.19742630194524
120.1838655753505
120.18036985341634
120.18386556621574
120.19742627500776
120.23233626030914
120.31510876188229
120.50189164087882
120.90394094494452
121.72782582802647
123.33119257135816
126.28750152151181
131.4411143259547
139.92117855582362
153.07773722241592
172.3172410673448
198.85094870031247
233.41709147419385
225.69803149743865
190.8546028040501
164.10575099534327
144.70794602801652
131.44113476848108
122.8884964030931
117.68968796759818
114.70676780636877
113.08855138598166
112.25680907594904
111.8508074984706
111.66213054394065
111.57849296263029
111.5432072275094
111.5294966877584
111.52596169819142
111.52949667820437
111.54320719933303
111.57849295188454
111.6621305174943
111.85080679322184
112.25680850590363
113.08855077738491
114.70676396300837
117.6896848622709
122.88847899542357
131.44111620614277
144.70789625389872
164.1056928533263
190.85454310399936
225.69789525571557
221.00968602459804
185.99763991041465
159.11740664720207
139.62243153714056
126.28752081914821
117.68970092397265
112.46251967884882
109.46272808468595
107.83500273253522
106.99817366607778
106.58958492799877
106.3996546161856
106.31543795623467
106.27989794739872
106.26608506480048
106.26252308740227
106.26608505485576
106.27989791810093
106.31543794313912
106.3996545841574
106.5895842058035
106.99817306533357
107.83500206335633
109.4627241058887
112.46251634403546
117.68968305234456
126.28750156674434
139.62238065524258
159.1173471321546
185.99757874626786
221.00954810510495
218.32208958507553
183.21322830632934
156.2572313313852
136.70589988262134
123.3312125419081
114.70678065749087
109.4627279703381
106.45279809411883
104.81929371668143
103.9793361383338
103.56913647903293
103.37841589390068
103.29382949710342
103.25812515192273
103.24424541552686
103.24066568889369
103.24424540517438
103.25812512152534
103.29382948174549
103.37841585688084
103.56913574351655
103.97933551374383
104.81929300224283
106.45279402069418
109.4627244810377
114.70676249275023
123.33119287337382
136.7058483633188
156.25717105659038
183.21316635716758
218.32195076720447
216.86552421112614
181.70410270765626
154.7067827510617
135.12452543684628
121.72784490151005
113.08856657402863
107.83500497958397
104.81929609472157
103.18245707502817
102.34067078163538
101.92951675464401
101.73832151035806
101.6535099583161
101.61770419247499
101.60378271001146
101.6001918173678
101.60378269906748
101.6177041606136
101.65350994010853
101.73832146778106
101.9295160069815
102.34067013637
103.18245632433563
104.81929195307188
107.83500138494834
113.08854822507251
121.72782498344341
135.12447355370975
154.7067220561653
181.7040403338465
216.8653849105096
216.11765600692212
180.92919474542867
153.91051404658822
134.31216917785457
120.90395728206731
112.25682153060731
106.99817315901618
103.97933574786485
102.34066799758739
101.49786495714007
101.0861726468279
100.89470571331204
100.80976335880634
100.77389781751083
100.75995141719906
100.7563538059615
100.7599514050095
100.7738977827205
100.80976333511859
100.89470566104052
101.08617188180564
101.49786428424896
102.34066720344055
103.97933153656783
106.99816946516013
112.25680303112556
120.90393717151997
134.31211703766152
153.91045306367022
180.92913208180326
216.11751638871732
215.75300298752595
180.5513226028732
153.52215336410907
133.915858010815
120.50190103446297
111.85081273866074
106.58957710855049
103.56912870565876
101.92950653553905
101.08616518297411
100.67418355905748
100.48256831414862
100.3975534257123
100.36165422569108
100.34769360448279
100.34409212561985
100.34769358915483
100.36165418358141
100.39755338836686
100.48256823829246
100.67418275489716
101.0861644492391
101.92950565043854
103.56912436242759
106.58957323558059
111.85079399951465
120.5018806293646
133.91580551460146
153.52209198883736
180.55125953627157
215.75286295621993
215.5837129127591
180.3758874860051
153.34181547904535
133.73177876020864
120.3150958907314
111.66211378936168
106.39962449703557
103.37838559832244
101.73828861113327
100.89467546599235
100.48254547489454
100.29085293346675
100.20579961606825
100.16988229469878
100.15591390786891
100.15231029639087
100.15591388436822
100.1698822333661
100.205799542373
100.29085279423609
100.48254456591773
100.89467456786056
101.73828748009144
103.37838090361501
106.39962014758514
111.66209443180901
120.31507472752747
133.73172537542314
153.34175312280175
180.3758233963421
215.58357186262126
215.508694066796
180.2981499276067
153.2618915401773
133.65017448622106
120.2322570234531
111.57840870315601
106.3153394540125
103.29373017677081
101.65340758181001
100.80966332962767
100.39746061335255
100.205729544717
100.12065674271851
100.08473007723777
100.0707576247804
100.06715288165981
100.0707575804135
100.08472996617286
100.12065657326777
100.20572923542429
100.39745941863119
100.80966197547137
101.65340575843175
103.29372448218372
106.31533373310656
111.57838755725128
120.23223364932609
133.65011850687614
153.2618263032972
180.29808281491344
215.5085500196323
215.47693636776697
180.26523531379777
153.2280448494195
133.6156059839347
120.1971537467489
111.54292644021484
106.27960048220294
103.25782509076906
101.6173998258846
100.77359495725833
100.3613580434702
100.1696085331902
100.0845262318498
100.04859492605539
100.03462041746691
100.03101508465484
100.03462032168902
100.04859469059782
100.08452581805389
100.16960778063034
100.36135608859776
100.77359236579511
101.61739608998873
103.25781659019624
106.27959085685298
111.54290014398255
120.19712393920791
133.6155423993791
153.22797111732004
180.26515924898283
215.47678344185215
215.46419322299909
180.2520260634561
153.21445486711266
133.601720334328
120.18304700497671
111.52866111459143
106.26522618563428
103.24337911723664
101.60290874040932
100.75907670823906
100.34682414500436
100.15506600785427
100.06997916041699
100.03404558017897
100.02007003316392
100.01646437205858
100.02006981585023
100.03404504582913
100.06997814681084
100.15506414209878
100.34682023808325
100.75907087141637
101.60289988924671
103.24336297845257
106.26520576422882
111.52862038567294
120.18299896531374
133.60163500703123
153.21435668980072
180.25192413464833
215.46401461347912
215.4597224483217
180.2473713943978
153.2096604157884
133.59681558063266
120.17805762819478
111.5236090629661
106.26012949342108
103.23825191316399
101.59776155393526
100.75391699712466
100.3416569268202
100.14989448922002
100.06480528909596
100.02887048343057
100.01489433856744
100.01128842888932
100.01489384653803
100.0288692616511
100.06480286436383
100.14988994057813
100.34164820227232
100.75390296799377
101.59773951695695
103.23821570677474
106.26008022367708
111.52352920024038
120.17795954518887
133.59666999508892
153.20949401182085
180.24719696644684
215.45947174048325
215.45935269075562
180.24698479751734
153.2092533305509
133.59638571151552
120.1776045756777
111.52313432740405
106.25963603206655
103.23774345784659
101.59724192830626
100.75338960462588
100.34112447897841
100.14935895160897
100.06426797076348
100.02833218812573
100.01435551581838
100.0107492899767
100.01435443183426
100.02832945771269
100.06426237457366
100.14934821828355
100.34110436627743
100.75335573945776
101.59718723994307
103.23765652839329
106.25951249507459
111.52295210105056
120.17737383578199
133.5960786917843
153.2089027293067
180.2466137092455
215.45890609429702
215.46259287813967
180.2503536385803
153.21269612162394
133.59986675020366
120.18109793313148
111.52662367926133
106.26311328414339
103.2412065114576
101.60069222574379
100.75683007687253
100.34455818735496
100.15278840855781
100.06769494985188
100.03175779696713
100.0177803528979
100.01417357560892
100.01777805653566
100.03175191711081
100.06768256673043
100.15276408443768
100.34451237920591
100.75675029928283
101.60056012370806
103.2409966259866
106.2628060920343
111.5261838715351
120.18052846187358
133.59914268471732
153.21186560023202
180.24946747261768
215.4616323083297
215.47210388354674
180.26018814928443
153.2227461435149
133.61003543958088
120.19131380208881
111.53684113276019
106.27330920868502
103.25137390571574
101.61083339947592
100.76695117347377
100.35466572124827
100.16288763800826
100.0777894846445
100.04184981588938
100.02787098257697
100.02426318211269
100.0278663331594
100.04183770176772
100.07776331953782
100.16283494743783
100.35456477912474
100.76677018878846
101.61052620153859
103.25087916521308
106.27256717526075
111.5357796581474
120.1899134709199
133.60827509179194
153.22071174727103
180.25800235925448
215.46984388789846
215.49510795146435
180.28396868009835
153.24702536545843
133.63458168472104
120.21595588739592
111.56147393396245
106.29788327894367
103.2758779618605
101.63527664653043
100.79134994019599
100.3790356850209
100.18724067452203
100.10213333187274
100.06618893333675
100.05220758209624
100.04859794350519
100.05219861800349
100.06616515660808
100.10208070665846
100.18713197004126
100.37882270561973
100.79095736666375
101.63459317459179
103.27475496317638
106.29615901998119
111.55897813794252
120.21260364154145
133.63035119776464
153.24209051989067
180.278631061256
215.48968949475903
215.54738126535855
180.3379709111879
153.30212014919306
133.69022392460838
120.27175888676722
111.61721286421385
106.35346424701432
103.33129147614939
101.69055402027634
100.84653282480033
100.43416020423004
100.24233238234562
100.15720797123375
100.12125514599741
100.10726947695359
100.10365672330447
100.1072530616576
100.12121082161077
100.15710750091085
100.24211947520345
100.43373257982338
100.84572266713421
101.6891058688158
103.32885520531951
106.34963206458485
111.61156511907082
120.26402886897175
133.68036097759784
153.29049023869288
180.32530270965086
215.53459772185096
215.6604365691824
180.4547822223233
153.42118348181734
133.8103264933655
120.392072818603
111.73729065616841
106.47314985594817
103.4506024764688
101.80958020965902
100.96537201681463
100.55288953841395
100.3610027762615
100.27584903018818
100.23988232174555
100.22588979377588
100.2222721093005
100.22586129926682
100.23980402710363
100.27566741434097
100.3606080819885
100.5520761545433
100.96378801077756
101.80667037662772
103.44557801213048
106.46504044426962
111.72507372742187
120.37500276991781
133.7882137403382
153.3947829529021
180.42579688280694
215.63120894101158
215.89345446368324
180.69539959330282
153.6661676679509
134.05710608627416
120.6389811829983
111.9835117196948
106.71847692345774
103.69515483368235
102.05358333516082
101.20903539821123
100.79636376635894
100.60438041972535
100.51918077879527
100.48319327333265
100.4691908079976
100.46556588905126
100.46914399765026
100.48306248783867
100.51887065223573
100.6036898033772
100.79490364036081
101.20611298793763
102.04806222378687
103.68535163515416
106.70220960184513
111.95837578002084
120.60303305539716
134.00966221562797
153.60869300708362
180.63171488196397
215.82912745967073
216.34985819170583
181.16642892676344
154.14507990938222
134.53873328661788
121.12019864529682
112.4630027783586
107.19610458749949
104.17131938269964
102.52878673846396
101.68368203238019
101.27071802680068
101.07859318036473
100.99332959643087
100.95731443394988
100.94329912836874
100.9396644659204
100.94322644923038
100.95710818388456
100.99283037619371
101.07745558905154
101.26825274875918
101.67861430891888
102.51893897510963
104.15331516432778
107.1653220335334
112.41404930831476
121.04828588149917
134.44165795788314
154.02539860816313
181.03232977472143
216.21396967928445
217.19779474820047
182.0408964192156
155.03258123661482
135.42944367086758
122.00877715454072
113.34773259867907
108.07732577512968
105.05006848555844
103.40604797532357
102.56014309812574
102.14678592650598
101.95448225488435
101.8691425723735
101.83309629420432
101.81906684356318
101.81542031815357
101.81896031004693
101.83278966134412
101.86838639389971
101.95272233954371
102.14288304164945
102.55191454418475
103.38961220052126
105.01911420092593
108.02269274337145
113.25798652156514
121.87272497341056
135.24062344034107
154.7946182124996
181.77047080456595
216.9224813961892
218.68983744795324
183.57797136464418
156.58861166595696
136.98694423220203
123.55981840002036
114.89116945933954
109.61495512449234
106.58411271612881
104.9381485430609
104.09128993741331
103.67750304670125
103.48502039700314
103.39961142578535
103.36353939654279
103.34949825174999
103.34583904075234
103.34935096143366
103.36311014377321
103.398535319302
103.48246851319597
103.67172524296569
104.07882363385033
104.91259828538037
106.53458225144709
109.52464804078598
114.73739231435388
123.31783681532771
136.6390942623796
156.13742158244838
183.0553514168963
218.15429374938324
221.174891552856
186.13353183454387
159.16569639020398
139.5567453238956
126.11415718984807
117.43253785346496
112.14849375733175
109.11356474780698
107.46569490391504
106.61803443048225
106.20394576437361
106.01136457448575
105.92592981167661
105.88985310160872
105.87580906814826
105.87213873033873
105.8756171378089
105.88928785106269
105.92449297047905
106.00790254241231
106.19596630847832
106.6004678075599
107.42885630974097
109.04023141293843
112.01053774495125
117.18873013643613
125.71313925080352
138.95348136928268
158.35076665342925
185.16352430189517
220.17074977408797
225.09591442225027
190.15465782289044
163.19104158834242
143.5500732606912
130.07599151346594
121.37825867117661
116.08708481907263
113.0495212603656
111.40091843200193
110.55319888258023
110.13922075110797
109.94674985583438
109.86138767785167
109.82534970785761
109.8113203317931
109.8076437926344
109.81108476282687
109.82465014224582
109.85958965669195
109.94236195491129
110.12896062369714
110.53023715093431
111.35184037473257
112.94959172936956
115.8938319754323
121.02456925843677
129.46725642693588
142.57529298587212
161.79502828577145
188.4144046120992
223.2688683051692
231.00004551277226
196.14228687338115
169.11834539408613
149.36983383673706
135.86176698704747
127.15491263150349
121.8638812451056
118.82868513830493
117.18230720083815
116.33611650861769
115.92304112181284
115.7310521505223
115.64592764596279
115.60999813712347
115.59601100800286
115.59233708932342
115.59573881731626
115.6091850256149
115.64382107940051
115.72586309615373
115.91077873473803
116.30833778645228
117.1220802554033
118.70392418387173
121.61732857910111
126.69065535012294
135.02989128698442
147.95785761807937
166.85563819424146
193.1230020814377
227.6872859144842
239.45740622697332
204.7817200591837
177.15329700908103
157.3374595289484
143.82855158651213
135.1398707669968
129.86577300779254
126.84245740523677
125.20333561217336
124.36118485323283
123.95020148860701
123.75922988897278
123.67457319187211
123.63884731367331
123.62493971482785
123.62128054752758
123.62464353146555
123.63796050367324
123.67226460213905
123.75351103739322
123.93659851858796
124.33013956411939
125.13542794354234
126.70025988213385
129.58086405024372
134.59328316719055
142.82255213792953
155.55026370656248
174.0873688188576
199.32947058526852
233.5594220012944
254.56094583036767
214.85253629971444
187.37229473606436
167.62595727887046
154.20898213159433
145.58633274692122
140.35486768723567
137.35681399091087
135.73164355671292
134.89676950272676
134.48937338026644
134.3000663663932
134.21615591677275
134.18075259441179
134.16696428679438
134.16333523658565
134.16666189506913
134.17984250522215
134.21379512177026
134.29419893112282
134.47538545351793
134.86476559857874
135.66144663541806
137.20925888390195
140.05784205736788
145.01282187278008
153.14295294225732
165.7055764395631
183.93360813515082
208.8028571554264
237.15073691547107
