# vtk DataFile Version 2.0
Unstructured Grid Example
ASCII
DATASET UNSTRUCTURED_GRID

POINTS 961 float
0.100000001 0.00499999989 0
0.0966666639 0.00499999989 0
0.0933333337 0.00499999989 0
0.0900000036 0.00499999989 0
0.086666666 0.00499999989 0
0.0833333358 0.00499999989 0
0.0799999982 0.00499999989 0
0.0766666681 0.00499999989 0
0.0733333305 0.00499999989 0
0.0700000003 0.00499999989 0
0.0666666701 0.00499999989 0
0.0633333325 0.00499999989 0
0.0599999987 0.00499999989 0
0.0566666685 0.00499999989 0
0.0533333346 0.00499999989 0
0.0500000007 0.00499999989 0
0.0466666669 0.00499999989 0
0.043333333 0.00499999989 0
0.0399999991 0.00499999989 0
0.0366666652 0.00499999989 0
0.0333333351 0.00499999989 0
0.0299999993 0.00499999989 0
0.0266666673 0.00499999989 0
0.0233333334 0.00499999989 0
0.0199999996 0.00499999989 0
0.0166666675 0.00499999989 0
0.0133333337 0.00499999989 0
0.00999999978 0.00499999989 0
0.00666666683 0.00499999989 0
0.00333333341 0.00499999989 0
0 0.00499999989 1
0.100000001 0.00166666671 0
0.0966666639 0.00166666671 0
0.0933333337 0.00166666671 0
0.0900000036 0.00166666671 0
0.086666666 0.00166666671 0
0.0833333358 0.00166666671 0
0.0799999982 0.00166666671 0
0.0766666681 0.00166666671 0
0.0733333305 0.00166666671 0
0.0700000003 0.00166666671 0
0.0666666701 0.00166666671 0
0.0633333325 0.00166666671 0
0.0599999987 0.00166666671 0
0.0566666685 0.00166666671 0
0.0533333346 0.00166666671 0
0.0500000007 0.00166666671 0
0.0466666669 0.00166666671 0
0.043333333 0.00166666671 0
0.0399999991 0.00166666671 0
0.0366666652 0.00166666671 0
0.0333333351 0.00166666671 0
0.0299999993 0.00166666671 0
0.0266666673 0.00166666671 0
0.0233333334 0.00166666671 0
0.0199999996 0.00166666671 0
0.0166666675 0.00166666671 0
0.0133333337 0.00166666671 0
0.00999999978 0.00166666671 0
0.00666666683 0.00166666671 0
0.00333333341 0.00166666671 0
0 0.00166666671 1
0.100000001 -0.00166666671 0
0.0966666639 -0.00166666671 0
0.0933333337 -0.00166666671 0
0.0900000036 -0.00166666671 0
0.086666666 -0.00166666671 0
0.0833333358 -0.00166666671 0
0.0799999982 -0.00166666671 0
0.0766666681 -0.00166666671 0
0.0733333305 -0.00166666671 0
0.0700000003 -0.00166666671 0
0.0666666701 -0.00166666671 0
0.0633333325 -0.00166666671 0
0.0599999987 -0.00166666671 0
0.0566666685 -0.00166666671 0
0.0533333346 -0.00166666671 0
0.0500000007 -0.00166666671 0
0.0466666669 -0.00166666671 0
0.043333333 -0.00166666671 0
0.0399999991 -0.00166666671 0
0.0366666652 -0.00166666671 0
0.0333333351 -0.00166666671 0
0.0299999993 -0.00166666671 0
0.0266666673 -0.00166666671 0
0.0233333334 -0.00166666671 0
0.0199999996 -0.00166666671 0
0.0166666675 -0.00166666671 0
0.0133333337 -0.00166666671 0
0.00999999978 -0.00166666671 0
0.00666666683 -0.00166666671 0
0.00333333341 -0.00166666671 0
0 -0.00166666671 1
0.100000001 -0.00499999989 0
0.0966666639 -0.00499999989 0
0.0933333337 -0.00499999989 0
0.0900000036 -0.00499999989 0
0.086666666 -0.00499999989 0
0.0833333358 -0.00499999989 0
0.0799999982 -0.00499999989 0
0.0766666681 -0.00499999989 0
0.0733333305 -0.00499999989 0
0.0700000003 -0.00499999989 0
0.0666666701 -0.00499999989 0
0.0633333325 -0.00499999989 0
0.0599999987 -0.00499999989 0
0.0566666685 -0.00499999989 0
0.0533333346 -0.00499999989 0
0.0500000007 -0.00499999989 0
0.0466666669 -0.00499999989 0
0.043333333 -0.00499999989 0
0.0399999991 -0.00499999989 0
0.0366666652 -0.00499999989 0
0.0333333351 -0.00499999989 0
0.0299999993 -0.00499999989 0
0.0266666673 -0.00499999989 0
0.0233333334 -0.00499999989 0
0.0199999996 -0.00499999989 0
0.0166666675 -0.00499999989 0
0.0133333337 -0.00499999989 0
0.00999999978 -0.00499999989 0
0.00666666683 -0.00499999989 0
0.00333333341 -0.00499999989 0
0 -0.00499999989 1
0.100000001 -0.00833333377 0
0.0966666639 -0.00833333377 0
0.0933333337 -0.00833333377 0
0.0900000036 -0.00833333377 0
0.086666666 -0.00833333377 0
0.0833333358 -0.00833333377 0
0.0799999982 -0.00833333377 0
0.0766666681 -0.00833333377 0
0.0733333305 -0.00833333377 0
0.0700000003 -0.00833333377 0
0.0666666701 -0.00833333377 0
0.0633333325 -0.00833333377 0
0.0599999987 -0.00833333377 0
0.0566666685 -0.00833333377 0
0.0533333346 -0.00833333377 0
0.0500000007 -0.00833333377 0
0.0466666669 -0.00833333377 0
0.043333333 -0.00833333377 0
0.0399999991 -0.00833333377 0
0.0366666652 -0.00833333377 0
0.0333333351 -0.00833333377 0
0.0299999993 -0.00833333377 0
0.0266666673 -0.00833333377 0
0.0233333334 -0.00833333377 0
0.0199999996 -0.00833333377 0
0.0166666675 -0.00833333377 0
0.0133333337 -0.00833333377 0
0.00999999978 -0.00833333377 0
0.00666666683 -0.00833333377 0
0.00333333341 -0.00833333377 0
0 -0.00833333377 1
0.100000001 -0.0116666667 0
0.0966666639 -0.0116666667 0
0.0933333337 -0.0116666667 0
0.0900000036 -0.0116666667 0
0.086666666 -0.0116666667 0
0.0833333358 -0.0116666667 0
0.0799999982 -0.0116666667 0
0.0766666681 -0.0116666667 0
0.0733333305 -0.0116666667 0
0.0700000003 -0.0116666667 0
0.0666666701 -0.0116666667 0
0.0633333325 -0.0116666667 0
0.0599999987 -0.0116666667 0
0.0566666685 -0.0116666667 0
0.0533333346 -0.0116666667 0
0.0500000007 -0.0116666667 0
0.0466666669 -0.0116666667 0
0.043333333 -0.0116666667 0
0.0399999991 -0.0116666667 0
0.0366666652 -0.0116666667 0
0.0333333351 -0.0116666667 0
0.0299999993 -0.0116666667 0
0.0266666673 -0.0116666667 0
0.0233333334 -0.0116666667 0
0.0199999996 -0.0116666667 0
0.0166666675 -0.0116666667 0
0.0133333337 -0.0116666667 0
0.00999999978 -0.0116666667 0
0.00666666683 -0.0116666667 0
0.00333333341 -0.0116666667 0
0 -0.0116666667 1
0.100000001 -0.0149999997 0
0.0966666639 -0.0149999997 0
0.0933333337 -0.0149999997 0
0.0900000036 -0.0149999997 0
0.086666666 -0.0149999997 0
0.0833333358 -0.0149999997 0
0.0799999982 -0.0149999997 0
0.0766666681 -0.0149999997 0
0.0733333305 -0.0149999997 0
0.0700000003 -0.0149999997 0
0.0666666701 -0.0149999997 0
0.0633333325 -0.0149999997 0
0.0599999987 -0.0149999997 0
0.0566666685 -0.0149999997 0
0.0533333346 -0.0149999997 0
0.0500000007 -0.0149999997 0
0.0466666669 -0.0149999997 0
0.043333333 -0.0149999997 0
0.0399999991 -0.0149999997 0
0.0366666652 -0.0149999997 0
0.0333333351 -0.0149999997 0
0.0299999993 -0.0149999997 0
0.0266666673 -0.0149999997 0
0.0233333334 -0.0149999997 0
0.0199999996 -0.0149999997 0
0.0166666675 -0.0149999997 0
0.0133333337 -0.0149999997 0
0.00999999978 -0.0149999997 0
0.00666666683 -0.0149999997 0
0.00333333341 -0.0149999997 0
0 -0.0149999997 1
0.100000001 -0.0183333326 0
0.0966666639 -0.0183333326 0
0.0933333337 -0.0183333326 0
0.0900000036 -0.0183333326 0
0.086666666 -0.0183333326 0
0.0833333358 -0.0183333326 0
0.0799999982 -0.0183333326 0
0.0766666681 -0.0183333326 0
0.0733333305 -0.0183333326 0
0.0700000003 -0.0183333326 0
0.0666666701 -0.0183333326 0
0.0633333325 -0.0183333326 0
0.0599999987 -0.0183333326 0
0.0566666685 -0.0183333326 0
0.0533333346 -0.0183333326 0
0.0500000007 -0.0183333326 0
0.0466666669 -0.0183333326 0
0.043333333 -0.0183333326 0
0.0399999991 -0.0183333326 0
0.0366666652 -0.0183333326 0
0.0333333351 -0.0183333326 0
0.0299999993 -0.0183333326 0
0.0266666673 -0.0183333326 0
0.0233333334 -0.0183333326 0
0.0199999996 -0.0183333326 0
0.0166666675 -0.0183333326 0
0.0133333337 -0.0183333326 0
0.00999999978 -0.0183333326 0
0.00666666683 -0.0183333326 0
0.00333333341 -0.0183333326 0
0 -0.0183333326 1
0.100000001 -0.0216666665 0
0.0966666639 -0.0216666665 0
0.0933333337 -0.0216666665 0
0.0900000036 -0.0216666665 0
0.086666666 -0.0216666665 0
0.0833333358 -0.0216666665 0
0.0799999982 -0.0216666665 0
0.0766666681 -0.0216666665 0
0.0733333305 -0.0216666665 0
0.0700000003 -0.0216666665 0
0.0666666701 -0.0216666665 0
0.0633333325 -0.0216666665 0
0.0599999987 -0.0216666665 0
0.0566666685 -0.0216666665 0
0.0533333346 -0.0216666665 0
0.0500000007 -0.0216666665 0
0.0466666669 -0.0216666665 0
0.043333333 -0.0216666665 0
0.0399999991 -0.0216666665 0
0.0366666652 -0.0216666665 0
0.0333333351 -0.0216666665 0
0.0299999993 -0.0216666665 0
0.0266666673 -0.0216666665 0
0.0233333334 -0.0216666665 0
0.0199999996 -0.0216666665 0
0.0166666675 -0.0216666665 0
0.0133333337 -0.0216666665 0
0.00999999978 -0.0216666665 0
0.00666666683 -0.0216666665 0
0.00333333341 -0.0216666665 0
0 -0.0216666665 1
0.100000001 -0.0250000004 0
0.0966666639 -0.0250000004 0
0.0933333337 -0.0250000004 0
0.0900000036 -0.0250000004 0
0.086666666 -0.0250000004 0
0.0833333358 -0.0250000004 0
0.0799999982 -0.0250000004 0
0.0766666681 -0.0250000004 0
0.0733333305 -0.0250000004 0
0.0700000003 -0.0250000004 0
0.0666666701 -0.0250000004 0
0.0633333325 -0.0250000004 0
0.0599999987 -0.0250000004 0
0.0566666685 -0.0250000004 0
0.0533333346 -0.0250000004 0
0.0500000007 -0.0250000004 0
0.0466666669 -0.0250000004 0
0.043333333 -0.0250000004 0
0.0399999991 -0.0250000004 0
0.0366666652 -0.0250000004 0
0.0333333351 -0.0250000004 0
0.0299999993 -0.0250000004 0
0.0266666673 -0.0250000004 0
0.0233333334 -0.0250000004 0
0.0199999996 -0.0250000004 0
0.0166666675 -0.0250000004 0
0.0133333337 -0.0250000004 0
0.00999999978 -0.0250000004 0
0.00666666683 -0.0250000004 0
0.00333333341 -0.0250000004 0
0 -0.0250000004 1
0.100000001 -0.0283333343 0
0.0966666639 -0.0283333343 0
0.0933333337 -0.0283333343 0
0.0900000036 -0.0283333343 0
0.086666666 -0.0283333343 0
0.0833333358 -0.0283333343 0
0.0799999982 -0.0283333343 0
0.0766666681 -0.0283333343 0
0.0733333305 -0.0283333343 0
0.0700000003 -0.0283333343 0
0.0666666701 -0.0283333343 0
0.0633333325 -0.0283333343 0
0.0599999987 -0.0283333343 0
0.0566666685 -0.0283333343 0
0.0533333346 -0.0283333343 0
0.0500000007 -0.0283333343 0
0.0466666669 -0.0283333343 0
0.043333333 -0.0283333343 0
0.0399999991 -0.0283333343 0
0.0366666652 -0.0283333343 0
0.0333333351 -0.0283333343 0
0.0299999993 -0.0283333343 0
0.0266666673 -0.0283333343 0
0.0233333334 -0.0283333343 0
0.0199999996 -0.0283333343 0
0.0166666675 -0.0283333343 0
0.0133333337 -0.0283333343 0
0.00999999978 -0.0283333343 0
0.00666666683 -0.0283333343 0
0.00333333341 -0.0283333343 0
0 -0.0283333343 1
0.100000001 -0.0316666663 0
[...]
POINT_DATA 961
SCALARS Temp float 1
LOOKUP_TABLE default
335.77225846963404
304.54006188427866
279.89632653675443
261.3599139948503
248.08914953069626
239.05357291478302
233.2040225375207
229.60206065090227
227.49075271454572
226.31137706833783
225.68267129300273
225.3623769426826
225.2063586492664
225.1340846286784
225.103545325628
225.09523511742194
225.10354530364063
225.13408456852613
225.20635862862034
225.36237689687502
225.68267015874753
226.31137625429284
227.49075195825017
229.60205601272867
233.2040193898973
239.05355503538755
248.08913295223766
261.3598708235168
279.8962837262927
304.54004032408596
335.7721897517209
304.5401500171242
272.1790430851807
246.64413236516938
227.43700634425912
213.68569952551687
204.3226493291692
198.26088031418814
194.52809344250838
192.3400075198356
191.1176874777173
190.46605724559888
190.1340674159475
189.97234393295818
189.8974233160063
189.8657643160419
189.85714918528885
189.86576429309548
189.8974232532136
189.97234391048238
190.13406736594436
190.46605606423623
191.11768662143243
192.34000670912857
194.5280885796692
198.2608769372813
204.3226305661918
213.68568186107467
227.43696049462997
246.64408569231594
272.1790033927983
304.5400439558514
279.89641421282
246.64413891001877
220.40489580109562
200.6668426965622
186.53441141347503
176.91104311673985
170.68013392849397
166.8427750801947
164.5931246332496
163.33625381768016
162.66611487987493
162.3246481213753
162.15828472176688
162.0812039929169
162.0486282587859
162.03976298958017
162.04862823474028
162.0812039270727
162.15828469560847
162.32464806283994
162.66611364883823
163.33625290206257
164.5931237252142
166.8427699268901
170.68013014542498
176.91102320678763
186.53439199657277
200.66679297934712
220.40484149663482
246.6440858276958
279.89628707942916
261.36000847005124
227.43702137078296
200.66685260110418
180.52776511004424
166.10672086647887
156.28563023259284
149.92581140456255
146.00844987045573
143.71150507484077
142.4279755724707
141.74349015323463
141.39464294130983
141.22464883590138
141.14587000633796
141.11257070170544
141.1035075028067
141.11257067647844
141.1458699372032
141.22464880469636
141.39464287111883
141.74348887247348
142.427974587045
143.71150404224974
146.00844439519435
149.92580711988032
156.28560909414807
166.10669949759082
180.5277114279648
200.66679205558057
227.43695966385337
261.35987116357285
248.089279139752
213.68574914580057
186.53445673353943
166.1067569698606
151.47735435878948
141.51299170870354
135.05936712773337
131.08351462948352
128.75181581962326
127.44858999752753
126.75344479809635
126.39908173182347
126.22635820890251
126.14629552565111
126.11244644450034
126.10323239120201
126.1124464180909
126.14629545322722
126.22635817198379
126.39908164855143
126.7534434708011
127.44858894053546
128.75181465550264
131.0835088424458
135.05936234090652
141.51296945263599
151.47733125174355
166.10670015831982
186.53439185128622
213.68568233420012
248.0891358939467
239.05371189097136
204.3227038750941
176.91109301721553
156.28567099801722
141.51299617134725
131.44968324867833
124.9309467484989
120.91426838903841
118.55816496425375
117.24101913496402
116.53828959622481
116.17997484137544
116.0052822198686
115.92428703659172
115.89003628348661
115.88071161112511
115.89003625597675
115.92428696112046
116.00528217727859
116.17997474528478
116.53828822846152
117.24101801258675
118.55816367947996
120.91426233364652
124.93094153022766
131.4496601020647
141.51297174542574
156.2856120030109
176.91102535963685
204.3226340198195
239.05356515020446
233.20417584112008
198.26094944796841
170.6801992308485
149.9258681983756
135.0593878235966
124.93096319453888
118.36913539618611
114.32526577937702
111.95279534489055
110.62624500167375
109.91835170740622
109.55732498669511
109.38127011486462
109.29962477111299
109.26509206336226
109.2556894153358
109.26509203489798
109.299624693019
109.3812700672057
109.55732487932788
109.91835030697165
110.6262438252607
111.95279396138282
114.32525951561904
118.36912984904963
124.93093941029399
135.05936249649102
149.92580779625843
170.6801298767917
198.26087781590488
233.20402706366204
229.6022074698342
194.52816048088735
166.84283993647745
146.0085068222766
131.08353561454595
120.91428522620441
114.3252661430971
110.26411635114077
107.88116404787733
106.54854100124842
105.8372844146408
105.47447548555674
105.29751727527531
105.21543700494692
105.1807142459815
105.17125879109274
105.18071421674459
105.21543692475022
105.29751722347444
105.474475369144
105.8372829896794
106.5485397839933
107.88116259104781
110.26410993952986
114.32526036849151
120.91426102250773
131.0835097177619
146.0084455656396
166.8427695892643
194.52808784088302
229.60205753570997
227.49089665290074
192.34007666631038
164.59319321303943
143.71156630876956
128.75184128661905
118.5581864231343
111.95280036499598
107.88116873675921
105.4918045999496
104.15543324438138
103.44208094855067
103.07815056553896
102.90061825753338
102.81825890214355
102.78341316867079
102.77392336811829
102.78341313884829
102.81825882037134
102.90061820260848
103.0781504424413
103.44207950641663
104.15543199864095
105.49180309308245
107.88116222820224
111.95279444522515
118.55816196225656
128.75181505182712
143.7115045595485
164.593122308543
192.34000347389588
227.49074608317184
226.31152100787529
191.11775654569772
163.33632185155113
142.42803627062278
127.44861494970125
117.2410401212647
110.62624954892266
106.54854522407878
104.15543277123545
102.81684891533251
102.1022469276106
101.737640705603
101.55975868862879
101.47722754947301
101.44230543723637
101.4327941861606
101.44230540699722
101.4772274665945
101.55975863151355
101.73764057791873
102.10224547422284
102.81684765112205
104.15543123267776
106.54853865624054
110.62624354268507
117.24101551204134
127.44858852521996
142.42797425086528
163.336250647339
191.11768306167593
226.31137010150795
225.68282623600663
190.46612816635013
162.66618347648125
141.74355118058725
126.75347002950903
116.53831086185409
109.91835652235528
105.83728890294299
103.44208073395937
102.10224718476958
101.3869316830959
101.02193524023811
100.84384899074554
100.76121641128358
100.72624876322472
100.71672464841541
100.72624873270682
100.7612163276752
100.84384893219489
101.02193510961501
101.38693022277951
102.10224590935402
103.4420791766287
105.8372823010536
109.91835046765864
116.53828617163978
126.7534435038614
141.743489018938
162.66611211773795
190.46605453428657
225.68267515810788
225.36253369315364
190.13413968116035
162.324718009137
141.39470522713395
126.3991081782581
116.17999729029111
109.55733095643703
105.47448111471988
103.0781514816795
101.7376420897595
101.02193636588152
100.65672400172421
100.4785233904408
100.39583334757265
100.36083964625763
100.35130812647738
100.36083961556409
100.39583326351033
100.4785233310074
100.65672386933456
101.02193490154433
101.73764080795132
103.07814991388547
105.4744744943592
109.55732487604571
116.17997255805179
126.39908160117734
141.3946429943021
162.32464657398296
190.13406597685918
225.36238253124853
225.20650532989944
189.97241528031654
162.15835489500273
141.22471156263103
126.22638500015002
116.00530492350413
109.38127627674459
105.29752306213989
102.90061931167729
101.55976020150746
100.84385024078775
100.47852351304621
100.30026158977061
100.21754037416254
100.18253239568612
100.17299679288352
100.18253236488813
100.21754028983474
100.30026152982725
100.47852337965847
100.84384877424846
101.5597589162614
102.90061773837971
105.29751643229194
109.3812701834305
116.00528017050569
126.22635839811797
141.22464929563813
162.15828342363653
189.97234154217782
225.20635412850504
225.1342309867692
189.89749469658582
162.08127501344327
141.14593329759077
126.14632264085083
115.92430991325355
109.29963101941654
105.21544283258136
102.81825997298044
101.47722906746174
100.76121766097992
100.39583346739262
100.21754037064383
100.13480312360552
100.09978773068599
100.09024999489269
100.09978769983029
100.13480303913268
100.21754031042622
100.39583333347957
100.76121619331207
101.47722778048582
102.81825839696994
105.21543619815107
109.29962491998003
115.92428515056199
126.14629602735542
141.14587101503503
162.08120352576307
189.89742094336916
225.13407976769878
225.10369658263608
189.86584023116586
162.04870098018642
141.1126348054481
126.11247398213645
115.89005940069676
109.26509846157911
105.18072017844136
102.78341432173227
101.44230702665826
100.72625007931295
100.3608398301995
100.18253245543458
100.09978779371734
100.06476894298022
100.05523020745015
100.06476891209643
100.0997877091751
100.1825323950875
100.36083969604317
100.72624861113387
101.44230573891325
102.78341274453894
105.18071354204477
109.26509235956443
115.89003463396092
126.11244736393267
141.11257251652947
162.0486294859107
189.8657664719299
225.1035453564484
225.09540932582703
189.8572295969849
162.0398372652364
141.103572227773
126.10326022417479
115.88073488607611
109.25569590694455
105.17126478574036
102.77392456804215
101.43279581510505
100.71672600058835
100.35130834494402
100.17299688650972
100.09025009156178
100.05523024101826
100.04569121555274
100.05523021012623
100.09025000699985
100.17299682612723
100.35130821072397
100.71672453227784
101.43279452717236
102.7739229905724
105.17125814889098
109.25568980436609
115.88071011844515
126.10323360497696
141.10350993748852
162.03976576959818
189.85715583658845
225.09525809815696
225.1037196692221
189.8658448542784
162.04870263069748
141.11263548455554
126.11247430309263
115.8900595614809
109.26509854482273
105.18072022282401
102.78341434658496
101.44230704183538
100.72625008981184
100.36083983850365
100.1825324627439
100.09978780059396
100.06476894968306
100.05523021410701
100.06476891879925
100.09978771605316
100.18253240240338
100.36083970436685
100.7262486216796
101.44230575418914
102.78341276957876
105.18071358675056
109.26509244332127
115.8900347954982
126.11244768591308
141.1125731969277
162.04863113793127
189.86577109668423
225.1035684446524
225.13423635927646
189.89749967737995
162.08127704530148
141.1459343140094
126.14632316377181
115.9243101904978
109.29963116918725
105.21544291588614
102.81826002200769
101.47722909920611
100.76121768426457
100.39583348667443
100.21754038810023
100.13480314026454
100.09978774702391
100.09025001114513
100.09978771616682
100.1348030557918
100.21754032789191
100.39583335279755
100.76121621669428
101.47722781244916
102.81825844643073
105.21543628223051
109.29962507101529
115.92428542970276
126.14629655290022
141.14587203480554
162.08120556157888
189.89742592847563
225.13408514452544
225.2065061078795
189.9724162736623
162.15835646731125
141.22471254581205
126.22638558321835
116.00530526069541
109.38127647328234
105.29752318077266
102.90061938854515
101.55976025676328
100.84385028527839
100.47852355238352
100.30026162673987
100.21754041009244
100.18253243119555
100.17299682827941
100.1825324003911
100.21754032575535
100.30026156679658
100.47852341903517
100.84384881888207
101.5597589718833
102.90061781603211
105.29751655240698
109.38127038249236
116.00528051161066
126.22635898674295
141.22465028606015
162.1582850046141
189.97234254504926
225.20635491606836
225.36252520438887
190.13414072604408
162.32471903948286
141.3947060781698
126.39910874990342
116.17999766133022
109.55733119946046
105.47448128192185
103.07815160643835
101.73764219194865
101.02193645663917
100.65672408695609
100.47852347312089
100.39583342912996
100.36083972735894
100.3513082074517
100.36083969664595
100.39583334503168
100.47852341364818
100.65672395456646
101.0219349924455
101.7376409106412
103.0781500398771
105.47447466409699
109.5573251236529
116.17997293652428
126.39908218374333
141.39464385993827
162.3246476221242
190.13406704150378
225.36237406244194
225.68283695952772
190.46612977224774
162.66618483394313
141.74355222854413
126.75347088167968
116.53831156182981
109.91835711782366
105.83728943323746
103.44208122672916
102.10224765733577
101.3869321454078
101.02193569761761
100.84384944586803
100.76121686542349
100.72624921696625
100.71672510203763
100.72624918640142
100.76121678171751
100.84384938717444
101.02193556685074
101.38693068509141
102.10224638240487
103.44207967102967
105.83728283521604
109.91835107075755
116.53828688476968
126.75344437624425
141.74349009482032
162.66611351002044
190.4660561793891
225.68268592137468
226.31152328049416
191.11775830556968
163.3363223589
142.42803653672996
127.44861504697161
117.24104008781572
110.6262494240978
106.54854504223124
104.15543255682809
102.81684868362208
102.10224668724862
101.7376404611419
101.55975844231723
101.4772273023621
101.44230518979617
101.432793938604
101.44230515945812
101.47722721926458
101.55975838483582
101.7376403329569
102.10224523337604
102.81684741941154
104.15543101980718
106.54853847939123
110.62624342925866
117.24101550007535
127.44858865759547
142.42797456764174
163.33625121977957
191.11768489613027
226.31137245020145
227.49089793761433
192.34007804496667
164.59319510107923
143.71156817754746
128.75184303055798
118.55818806651769
111.95280194591822
107.88117028402385
105.49180613088836
104.15543476812886
103.44208246943948
103.07815208542647
102.90061977712833
102.81826042167236
102.78341468817351
102.7739248875623
102.78341465816374
102.81826033946635
102.90061972141882
103.07815196109584
103.4420810256743
104.15543352085147
105.4918046240212
107.88116378007122
111.95279604060948
118.5581636372593
128.75181685236674
143.71150651518928
164.59312431281188
192.34000498892962
227.49074750810365
229.60220134145294
194.5281589658478
166.84283970764102
146.0085063792046
131.08353497218351
120.91428447160088
114.3252653403352
110.26411553228412
107.88116322606908
106.54854018065221
105.83728359588129
105.47447466819885
105.2975164587655
105.21543618887021
105.18071343006322
105.17125797512567
105.18071340050307
105.21543610789868
105.29751640548211
105.47447454925016
105.83728216705174
106.54853895839855
107.88116176463478
110.26410912067284
114.32525957883145
120.91426030762456
131.08350915829712
146.00844526218364
166.84276955861827
194.52808656635312
229.60205165739478
233.20417564600513
198.26095773284274
170.68020553309444
149.92587402508082
135.0593935070017
124.93096890251485
118.36914117332536
114.32527162166001
111.95280123450077
110.62625092130398
109.91835764438135
109.55733093297773
109.38127606582526
109.29963072425863
109.26509801737912
109.25569536944445
109.26509798840165
109.2996306449003
109.38127601564221
109.55733082102653
109.91835623631599
110.62624973349222
111.95279983653066
114.32526534479973
118.36913562618855
124.93094515411863
135.0593682847212
149.9258138301055
170.6801365015265
198.26088651260187
233.20402730379732
239.0537437241176
204.3227085177161
176.91109529059239
156.28567252084267
141.51299772628448
131.4496850000359
124.93094868825195
120.91427046586861
118.55816712854204
117.2410213502767
116.53829183926314
116.17997709857927
116.00528448390315
115.92428930370504
115.89003855178902
115.88071387953497
115.8900385235257
115.92428922633712
116.0052844373993
116.17997699505457
116.53829045834513
117.24102020641601
118.55816581214839
120.91426437075555
124.93094343413124
131.44966185342165
141.51297339736365
156.28561379789605
176.91102813233957
204.32263935440582
239.0535977348187
248.08926781004814
213.6857422599994
186.53444775584913
166.10674827196507
151.47734623239919
141.51298407997282
135.05935984797918
131.08350757072907
128.75180889047382
127.44858313962243
126.75343797713545
126.3990749290059
126.22635141453097
126.14628873496287
126.11243965518207
126.10322560196074
126.11243962774839
126.14628865991483
126.22635137205506
126.39907483481281
126.75343662962767
127.4485820475245
128.75180766975197
131.08350170079228
135.0593549563255
141.5129617269019
151.47732312535038
166.10669173600928
186.53438359228008
213.68567661558313
248.08912588130858
261.3600030278943
227.43702011940104
200.6668553874898
180.52777061018
166.10672816543288
156.28563867464783
149.92582055605487
146.0084594421126
143.71151488347277
142.42798550832416
141.7435001541658
141.3946529739972
141.22465888336785
141.1458800602968
141.1125807581572
141.10351755956424
141.1125807316384
141.1458799878086
141.22465884492016
141.39465288920488
141.74349884547834
142.42798447222796
143.711513764018
146.00845382723327
149.9258160642288
156.28561726414074
166.10670652095428
180.52771692810063
200.66679576141823
227.43696038471924
261.35986824970325
279.89637977771054
246.6441116673965
220.40487723969997
200.66682845177567
186.534399498133
176.9110325983344
170.68012423049126
166.84276584833822
164.5931156552768
163.3362449719192
162.66610609989377
162.32463937266277
162.15827598723902
162.0811952644582
162.0486195325724
162.03975426354046
162.04861950701573
162.08119519465433
162.15827595240972
162.32463929633096
162.66610483403565
163.33624399120862
164.59311463101096
166.8427604968407
170.68012012493014
176.91101218905152
186.53437936253619
200.66677781510484
220.4048229352328
246.64406274150426
279.8962576282544
304.5401197505605
272.1790489291231
246.64414872205938
227.43702751763942
213.68572394192486
204.3226757402384
198.26090791500386
194.5281217244064
192.3400361756372
191.11771633009673
190.46608619692827
190.13409641497284
189.9723729539814
189.8974523466432
189.86579335038775
189.85717822017077
189.86579332580413
189.8974522795358
189.97237292197812
190.13409634520403
190.46608497636308
191.1177153992283
192.34003522855176
194.52811662105339
198.26090412626775
204.32265628530146
213.6857051102853
227.4369796957585
246.64409789275345
272.17900923672113
304.5400406466368
335.77223348103536
304.54005171731603
279.896315332355
261.35990707679
248.08914542536763
239.05357056954753
233.2040212268975
229.602059923298
227.49075230171604
226.31137681827954
225.6826711235283
225.3623768114023
225.20635853529677
225.13408452212903
225.10354522185364
225.0952350139287
225.10354519822744
225.13408445764924
225.2063585050679
225.36237674564262
225.68266994951955
226.3113759281554
227.49075140520227
229.60205503506222
233.2040176440225
239.05355193865407
248.08912752982914
261.35986137717225
279.89626753793806
304.54000319977774
335.7721647631479
