# vtk DataFile Version 2.0
Unstructured Grid Example
ASCII
DATASET UNSTRUCTURED_GRID

POINTS 961 float
0.100000001 0.00499999989 0
0.0966666639 0.00499999989 0
0.0933333337 0.00499999989 0
0.0900000036 0.00499999989 0
0.086666666 0.00499999989 0
0.0833333358 0.00499999989 0
0.0799999982 0.00499999989 0
0.0766666681 0.00499999989 0
0.0733333305 0.00499999989 0
0.0700000003 0.00499999989 0
0.0666666701 0.00499999989 0
0.0633333325 0.00499999989 0
0.0599999987 0.00499999989 0
0.0566666685 0.00499999989 0
0.0533333346 0.00499999989 0
0.0500000007 0.00499999989 0
0.0466666669 0.00499999989 0
0.043333333 0.00499999989 0
0.0399999991 0.00499999989 0
0.0366666652 0.00499999989 0
0.0333333351 0.00499999989 0
0.0299999993 0.00499999989 0
0.0266666673 0.00499999989 0
0.0233333334 0.00499999989 0
0.0199999996 0.00499999989 0
0.0166666675 0.00499999989 0
0.0133333337 0.00499999989 0
0.00999999978 0.00499999989 0
0.00666666683 0.00499999989 0
0.00333333341 0.00499999989 0
0 0.00499999989 0
0.100000001 0.00166666671 0
0.0966666639 0.00166666671 0
0.0933333337 0.00166666671 0
0.0900000036 0.00166666671 0
0.086666666 0.00166666671 0
0.0833333358 0.00166666671 0
0.0799999982 0.00166666671 0
0.0766666681 0.00166666671 0
0.0733333305 0.00166666671 0
0.0700000003 0.00166666671 0
0.0666666701 0.00166666671 0
0.0633333325 0.00166666671 0
0.0599999987 0.00166666671 0
0.0566666685 0.00166666671 0
0.0533333346 0.00166666671 0
0.0500000007 0.00166666671 0
0.0466666669 0.00166666671 0
0.043333333 0.00166666671 0
0.0399999991 0.00166666671 0
0.0366666652 0.00166666671 0
0.0333333351 0.00166666671 0
0.0299999993 0.00166666671 0
0.0266666673 0.00166666671 0
0.0233333334 0.00166666671 0
0.0199999996 0.00166666671 0
0.0166666675 0.00166666671 0
0.0133333337 0.00166666671 0
0.00999999978 0.00166666671 0
0.00666666683 0.00166666671 0
0.00333333341 0.00166666671 0
0 0.00166666671 0
0.100000001 -0.00166666671 0
0.0966666639 -0.00166666671 0
0.0933333337 -0.00166666671 0
0.0900000036 -0.00166666671 0
0.086666666 -0.00166666671 0
0.0833333358 -0.00166666671 0
0.0799999982 -0.00166666671 0
0.0766666681 -0.00166666671 0
0.0733333305 -0.00166666671 0
0.0700000003 -0.00166666671 0
0.0666666701 -0.00166666671 0
0.0633333325 -0.00166666671 0
0.0599999987 -0.00166666671 0
0.0566666685 -0.00166666671 0
0.0533333346 -0.00166666671 0
0.0500000007 -0.00166666671 0
0.0466666669 -0.00166666671 0
0.043333333 -0.00166666671 0
0.0399999991 -0.00166666671 0
0.0366666652 -0.00166666671 0
0.0333333351 -0.00166666671 0
0.0299999993 -0.00166666671 0
0.0266666673 -0.00166666671 0
0.0233333334 -0.00166666671 0
0.0199999996 -0.00166666671 0
0.0166666675 -0.00166666671 0
0.0133333337 -0.00166666671 0
0.00999999978 -0.00166666671 0
0.00666666683 -0.00166666671 0
0.00333333341 -0.00166666671 0
0 -0.00166666671 0
0.100000001 -0.00499999989 0
0.0966666639 -0.00499999989 0
0.0933333337 -0.00499999989 0
0.0900000036 -0.00499999989 0
0.086666666 -0.00499999989 0
0.0833333358 -0.00499999989 0
0.0799999982 -0.00499999989 0
0.0766666681 -0.00499999989 0
0.0733333305 -0.00499999989 0
0.0700000003 -0.00499999989 0
0.0666666701 -0.00499999989 0
0.0633333325 -0.00499999989 0
0.0599999987 -0.00499999989 0
0.0566666685 -0.00499999989 0
0.0533333346 -0.00499999989 0
0.0500000007 -0.00499999989 0
0.0466666669 -0.00499999989 0
0.043333333 -0.00499999989 0
0.0399999991 -0.00499999989 0
0.0366666652 -0.00499999989 0
0.0333333351 -0.00499999989 0
0.0299999993 -0.00499999989 0
0.0266666673 -0.00499999989 0
0.0233333334 -0.00499999989 0
0.0199999996 -0.00499999989 0
0.0166666675 -0.00499999989 0
0.0133333337 -0.00499999989 0
0.00999999978 -0.00499999989 0
0.00666666683 -0.00499999989 0
0.00333333341 -0.00499999989 0
0 -0.00499999989 0
0.100000001 -0.00833333377 0
0.0966666639 -0.00833333377 0
0.0933333337 -0.00833333377 0
0.0900000036 -0.00833333377 0
0.086666666 -0.00833333377 0
0.0833333358 -0.00833333377 0
0.0799999982 -0.00833333377 0
0.0766666681 -0.00833333377 0
0.0733333305 -0.00833333377 0
0.0700000003 -0.00833333377 0
0.0666666701 -0.00833333377 0
0.0633333325 -0.00833333377 0
0.0599999987 -0.00833333377 0
0.0566666685 -0.00833333377 0
0.0533333346 -0.00833333377 0
0.0500000007 -0.00833333377 0
0.0466666669 -0.00833333377 0
0.043333333 -0.00833333377 0
0.0399999991 -0.00833333377 0
0.0366666652 -0.00833333377 0
0.0333333351 -0.00833333377 0
0.0299999993 -0.00833333377 0
0.0266666673 -0.00833333377 0
0.0233333334 -0.00833333377 0
0.0199999996 -0.00833333377 0
0.0166666675 -0.00833333377 0
0.0133333337 -0.00833333377 0
0.00999999978 -0.00833333377 0
0.00666666683 -0.00833333377 0
0.00333333341 -0.00833333377 0
0 -0.00833333377 0
0.100000001 -0.0116666667 0
0.0966666639 -0.0116666667 0
0.0933333337 -0.0116666667 0
0.0900000036 -0.0116666667 0
0.086666666 -0.0116666667 0
0.0833333358 -0.0116666667 0
0.0799999982 -0.0116666667 0
0.0766666681 -0.0116666667 0
0.0733333305 -0.0116666667 0
0.0700000003 -0.0116666667 0
0.0666666701 -0.0116666667 0
0.0633333325 -0.0116666667 0
0.0599999987 -0.0116666667 0
0.0566666685 -0.0116666667 0
0.0533333346 -0.0116666667 0
0.0500000007 -0.0116666667 0
0.0466666669 -0.0116666667 0
0.043333333 -0.0116666667 0
0.0399999991 -0.0116666667 0
0.0366666652 -0.0116666667 0
0.0333333351 -0.0116666667 0
0.0299999993 -0.0116666667 0
0.0266666673 -0.0116666667 0
0.0233333334 -0.0116666667 0
0.0199999996 -0.0116666667 0
0.0166666675 -0.0116666667 0
0.0133333337 -0.0116666667 0
0.00999999978 -0.0116666667 0
0.00666666683 -0.0116666667 0
0.00333333341 -0.0116666667 0
0 -0.0116666667 0
0.100000001 -0.0149999997 0
0.0966666639 -0.0149999997 0
0.0933333337 -0.0149999997 0
0.0900000036 -0.0149999997 0
0.086666666 -0.0149999997 0
0.0833333358 -0.0149999997 0
0.0799999982 -0.0149999997 0
0.0766666681 -0.0149999997 0
0.0733333305 -0.0149999997 0
0.0700000003 -0.0149999997 0
0.0666666701 -0.0149999997 0
0.0633333325 -0.0149999997 0
0.0599999987 -0.0149999997 0
0.0566666685 -0.0149999997 0
0.0533333346 -0.0149999997 0
0.0500000007 -0.0149999997 0
0.0466666669 -0.0149999997 0
0.043333333 -0.0149999997 0
0.0399999991 -0.0149999997 0
0.0366666652 -0.0149999997 0
0.0333333351 -0.0149999997 0
0.0299999993 -0.0149999997 0
0.0266666673 -0.0149999997 0
0.0233333334 -0.0149999997 0
0.0199999996 -0.0149999997 0
0.0166666675 -0.0149999997 0
0.0133333337 -0.0149999997 0
0.00999999978 -0.0149999997 0
0.00666666683 -0.0149999997 0
0.00333333341 -0.0149999997 0
0 -0.0149999997 0
0.100000001 -0.0183333326 0
0.0966666639 -0.0183333326 0
0.0933333337 -0.0183333326 0
0.0900000036 -0.0183333326 0
0.086666666 -0.0183333326 0
0.0833333358 -0.0183333326 0
0.0799999982 -0.0183333326 0
0.0766666681 -0.0183333326 0
0.0733333305 -0.0183333326 0
0.0700000003 -0.0183333326 0
0.0666666701 -0.0183333326 0
0.0633333325 -0.0183333326 0
0.0599999987 -0.0183333326 0
0.0566666685 -0.0183333326 0
0.0533333346 -0.0183333326 0
0.0500000007 -0.0183333326 0
0.0466666669 -0.0183333326 0
0.043333333 -0.0183333326 0
0.0399999991 -0.0183333326 0
0.0366666652 -0.0183333326 0
0.0333333351 -0.0183333326 0
0.0299999993 -0.0183333326 0
0.0266666673 -0.0183333326 0
0.0233333334 -0.0183333326 0
0.0199999996 -0.0183333326 0
0.0166666675 -0.0183333326 0
0.0133333337 -0.0183333326 0
0.00999999978 -0.0183333326 0
0.00666666683 -0.0183333326 0
0.00333333341 -0.0183333326 0
0 -0.0183333326 0
0.100000001 -0.0216666665 0
0.0966666639 -0.0216666665 0
0.0933333337 -0.0216666665 0
0.0900000036 -0.0216666665 0
0.086666666 -0.0216666665 0
0.0833333358 -0.0216666665 0
0.0799999982 -0.0216666665 0
0.0766666681 -0.0216666665 0
0.0733333305 -0.0216666665 0
0.0700000003 -0.0216666665 0
0.0666666701 -0.0216666665 0
0.0633333325 -0.0216666665 0
0.0599999987 -0.0216666665 0
0.0566666685 -0.0216666665 0
0.0533333346 -0.0216666665 0
0.0500000007 -0.0216666665 0
0.0466666669 -0.0216666665 0
0.043333333 -0.0216666665 0
0.0399999991 -0.0216666665 0
0.0366666652 -0.0216666665 0
0.0333333351 -0.0216666665 0
0.0299999993 -0.0216666665 0
0.0266666673 -0.0216666665 0
0.0233333334 -0.0216666665 0
0.0199999996 -0.0216666665 0
0.0166666675 -0.0216666665 0
0.0133333337 -0.0216666665 0
0.00999999978 -0.0216666665 0
0.00666666683 -0.0216666665 0
0.00333333341 -0.0216666665 0
0 -0.0216666665 0
0.100000001 -0.0250000004 0
0.0966666639 -0.0250000004 0
0.0933333337 -0.0250000004 0
0.0900000036 -0.0250000004 0
0.086666666 -0.0250000004 0
0.0833333358 -0.0250000004 0
0.0799999982 -0.0250000004 0
0.0766666681 -0.0250000004 0
0.0733333305 -0.0250000004 0
0.0700000003 -0.0250000004 0
0.0666666701 -0.0250000004 0
0.0633333325 -0.0250000004 0
0.0599999987 -0.0250000004 0
0.0566666685 -0.0250000004 0
0.0533333346 -0.0250000004 0
0.0500000007 -0.0250000004 0
0.0466666669 -0.0250000004 0
0.043333333 -0.0250000004 0
0.0399999991 -0.0250000004 0
0.0366666652 -0.0250000004 0
0.0333333351 -0.0250000004 0
0.0299999993 -0.0250000004 0
0.0266666673 -0.0250000004 0
0.0233333334 -0.0250000004 0
0.0199999996 -0.0250000004 0
0.0166666675 -0.0250000004 0
0.0133333337 -0.0250000004 0
0.00999999978 -0.0250000004 0
0.00666666683 -0.0250000004 0
0.00333333341 -0.0250000004 0
0 -0.0250000004 0
0.100000001 -0.0283333343 0
0.0966666639 -0.0283333343 0
0.0933333337 -0.0283333343 0
0.0900000036 -0.0283333343 0
0.086666666 -0.0283333343 0
0.0833333358 -0.0283333343 0
0.0799999982 -0.0283333343 0
0.0766666681 -0.0283333343 0
0.0733333305 -0.0283333343 0
0.0700000003 -0.0283333343 0
0.0666666701 -0.0283333343 0
0.0633333325 -0.0283333343 0
0.0599999987 -0.0283333343 0
0.0566666685 -0.0283333343 0
0.0533333346 -0.0283333343 0
0.0500000007 -0.0283333343 0
0.0466666669 -0.0283333343 0
0.043333333 -0.0283333343 0
0.0399999991 -0.0283333343 0
0.0366666652 -0.0283333343 0
0.0333333351 -0.0283333343 0
0.0299999993 -0.0283333343 0
0.0266666673 -0.0283333343 0
0.0233333334 -0.0283333343 0
0.0199999996 -0.0283333343 0
0.0166666675 -0.0283333343 0
0.0133333337 -0.0283333343 0
0.00999999978 -0.0283333343 0
0.00666666683 -0.0283333343 0
0.00333333341 -0.0283333343 0
0 -0.0283333343 0
0.100000001 -0.0316666663 0
[...]
POINT_DATA 961
SCALARS Temp float 1
LOOKUP_TABLE default
305.9971764793929
274.31757767784137
250.58538378243477
233.9329648434567
223.0051092950197
216.29911570710377
212.4466907811221
210.37076282659638
209.3186571743451
208.81559608082605
208.58789977094602
208.4900086040996
208.44991381356513
208.43427125374745
208.428610247262
208.4272175799534
208.42861024418022
208.43427124413174
208.44991381560496
208.4900086100257
208.58789943896653
208.81559586903614
209.31865708360934
210.3707609013258
212.44668997397818
216.29910538125017
223.00510017598754
233.9329340980624
250.5853537182678
274.3175703118165
305.9971218910784
274.3176656445029
241.51507616123567
216.9408343188635
199.6968445458361
188.38018350232136
181.4351645399138
177.44514712582887
175.2949126512843
174.20506013796245
173.68390725020248
173.44800230072735
173.34657350119141
173.3050262755127
173.28881575407877
173.28294877922548
173.2815053727205
173.28294877600334
173.2888157440207
173.30502627735387
173.34657350656605
173.4480019546937
173.68390702538323
174.20506003037795
175.2949106240376
177.44514621222672
181.4351536663395
188.38017364958833
199.69681168252797
216.940800973011
241.5150508753797
274.31757396051825
250.58546849775584
216.9408389657444
191.73365481011078
174.04351947053917
162.4324302647494
155.30553678138037
151.21026208946054
149.00285300078534
147.88377872898985
147.34853190879127
147.10619156368674
147.00197177074241
146.9592715267149
146.94260743493044
146.93657510120065
146.9350908176841
146.9365750978078
146.94260742432812
146.95927152784313
147.00197177412886
147.10619120242512
147.34853166297242
147.8837785813495
149.00285083014256
151.21026094436186
155.30552515360637
162.4324191056064
174.04348341709564
191.73361451274738
216.94080098977562
250.5853569189347
233.93305511027148
199.69685651859038
174.04352828184204
156.03752278074575
144.21683448064732
136.9596364254003
132.78840842239006
130.5394223043164
129.3989249841677
128.8532591361744
128.60612121835985
128.49980328983312
128.45622913628725
128.43921856370085
128.43305903187044
128.4315431617018
128.43305902828885
128.43921855249388
128.45622913633056
128.4998032902204
128.60612084172487
128.85325886465446
129.39892478240225
130.53941997168363
132.7884069827804
136.9596239885174
144.21682186895657
156.03748350348195
174.04348255206574
199.69681078157862
233.932934325261
223.0052287238195
188.38022400360924
162.43246819591178
144.21686411594357
132.25614901422654
124.91120578722392
120.68837608653855
118.41087067893727
117.25552938945242
116.70256891648543
116.45203672609578
116.3442188315356
116.30001350857187
116.28275023998337
116.27649713494938
116.27495789702658
116.2764971311766
116.28275022816712
116.30001350735543
116.34421882848935
116.45203633521899
116.70256861870241
117.25552913080494
118.41086819220827
120.68837435840193
124.91119263911311
132.25613516141084
144.21682243987274
162.4324189378689
188.3801739752352
223.0051029243898
216.2992431954076
181.43520872270386
155.30557796261274
136.959669350276
124.91120897049952
117.51076868451362
113.2549597742094
110.95901998304485
109.79396859138373
109.2361772815992
108.98336906899374
108.87453281262302
108.82989372133287
108.81245475108156
108.80613590953254
108.80458014517524
108.80613590558166
108.812454738703
108.8298937188704
108.87453280624887
108.9833686660544
109.23617696050358
109.79396828235139
110.95901736938814
113.25495781070146
117.51075500369012
124.91119424217669
136.959626134249
155.30552663783686
181.4351563513676
216.29911470031476
212.4468273447708
177.44520053554194
151.2103130908173
132.78845163252055
120.6883897264434
113.254970363882
108.97933189287725
106.6721651470384
105.5011193063898
104.94030351836042
104.6860498438479
104.5765575405112
104.53163505093735
104.51407972914448
104.50771683434414
104.50614990903482
104.50771683023589
104.51407971628046
104.53163504736858
104.57655753127044
104.6860494315256
104.94030317884784
105.50111895831469
106.67216244097628
108.9793297628449
113.25495633283084
120.68837445410394
132.78840752133647
151.21026063053915
177.44514693523345
212.44669744104723
210.37089247070915
175.29496357681506
149.0029031050456
130.5394651831282
118.4108841540143
110.95903049716318
106.67216507435947
104.35855221065422
103.18401279275962
102.6214067112265
102.36628371807335
102.25639051119043
102.21129208528178
102.19366342677894
102.18727239022265
102.18569827314805
102.18727238597086
102.19366341349436
102.21129208076603
102.25639049962845
102.36628329889253
102.62140635837616
103.18401241736161
104.35854944376145
106.67216283886866
110.95901625775828
118.41086857357708
130.53942058856205
149.00285005581964
175.2949093591886
210.37076186027448
209.31878159296895
174.205110781208
147.88383005636453
129.39896956237206
117.25554474173275
109.7939810794418
105.50112123689038
103.18401481126968
102.00755146409594
101.44394279470893
101.18832451269675
101.07819888208654
101.03299667760943
101.01532403236001
101.00891586575324
101.00733732920745
101.00891586133395
101.0153240186294
101.0329966721516
101.07819886846445
101.18832408832172
101.44394243218741
102.00755107009405
103.18401200612816
105.50111893830692
109.79396672313445
117.25552899606777
129.39892471904196
147.8837767135096
174.20505626313812
209.3186506392109
208.8157201374202
173.68395746400924
147.34858230284777
128.85330276516027
116.70258334563984
109.23618887530415
104.94030455956964
102.62140784210266
101.44394190313544
100.87980145271146
100.62391561851206
100.51366207782849
100.4684016900861
100.45070393606163
100.4442858343446
100.44270470821469
100.44428582961896
100.45070392158404
100.46840168316811
100.51366206144482
100.62391518863272
100.87980108081628
101.44394149311027
102.62140500847538
104.94030221757723
109.23617444687144
116.7025675034225
128.85325778523676
147.348528803565
173.68390278815403
208.81558900638723
208.58803292775113
173.4480524095812
147.10624049089486
128.60616309175458
116.45204932170317
108.98337879762018
104.68604899349603
102.36628293880601
101.18832169625492
100.62391368566159
100.36789064730526
100.2575702214325
100.21227880726508
100.19456740629263
100.18814381283119
100.18656123957877
100.18814380734248
100.19456739000351
100.21227879689016
100.25757019890654
100.36789020681464
100.62391329679105
101.18832125997548
102.36628006529016
104.68604659565304
108.98336429033193
116.45203338020902
128.60611798641378
147.10618685187669
173.447997591122
208.58790164633496
208.49013709443017
173.3466182505192
147.00201507893217
128.49983934604032
116.34422544409456
108.87453642605863
104.57655047538768
102.25638344774205
101.07818973382506
100.51365378301637
100.25756384347362
100.14721014097756
100.1019029730737
100.08418450354877
100.07775801485468
100.07617466958101
100.0777580072971
100.08418448231932
100.10190295317396
100.14721010149738
100.25756337433275
100.51365334840122
101.07818922794432
102.2563804730236
104.57654793856094
108.87452173548435
116.3442092758841
128.49979397166234
147.00196114164083
173.34656312110218
208.4900055012479
208.45001362188182
173.30505080747986
146.95929523033695
128.45624525591245
116.29999969990865
108.82987651538686
104.53160687150404
102.2112637000648
101.0329660660531
100.46837183939415
100.21225081649958
100.10188133132527
100.05656653309553
100.03884456840385
100.03241662117357
100.03083288113461
100.03241660805327
100.03884453369326
100.05656648668041
100.1018812437137
100.21225026480384
100.4683712706116
101.03296535319095
102.211260422186
104.53160391398593
108.82986127059552
116.29998284120649
128.45619906588806
146.95924038372544
173.30499472173975
208.44988107916708
208.43431287949355
173.28878030077797
146.94257011472106
128.43917183039332
116.28267208490419
108.81237206080672
104.51398523037692
102.19356812886478
101.01522610081743
100.45060649700505
100.19447165859935
100.08409500636078
100.03877666567912
100.02105304201257
100.01462438757997
100.0130404504451
100.01462436001155
100.02105297166405
100.03877654753744
100.08409478537932
100.19447087288695
100.450605539448
101.01522477618893
102.19356393950035
104.51398098798253
108.81235510273756
116.2826530675508
128.4391230714007
146.94251238496727
173.28872116828663
208.43417731189882
208.4284806640543
173.28273516527403
146.93635112135266
128.4328200072218
116.27622244722167
108.80585348302301
104.50742022913259
102.18697329184418
101.00861297205324
100.44398267218486
100.18784186752653
100.07746203997785
100.03214208765414
100.01441768818178
100.0079886921492
100.0064046504044
100.00798862862403
100.01441752741735
100.03214178294984
100.07746146290549
100.187840440957
100.4439806241796
101.0086098934542
102.18696643727469
104.50741216361034
108.80583135110673
116.27619682943848
128.43276331716376
146.93628442674463
173.2826665168628
208.42833563648688
208.426590751889
173.28075658855207
146.9343119704205
128.43073431033534
116.2741016895666
108.80370718678309
104.50525606368822
102.18479715186668
101.00642916118882
100.4417941701784
100.18565062932245
100.07526928061725
100.02994852277679
100.01222371797904
100.0057945308459
100.00421041182132
100.00579438194279
100.01222333804233
100.02994775367992
100.07526779209627
100.1856475171784
100.4417891794188
101.0064212355532
102.1847827723456
104.50523699686838
108.80366992153591
116.27405650137955
128.43065385117922
146.93421819817326
173.28065906036989
208.4264169682531
208.42649604525388
173.28065692890905
146.93420524632612
128.430619073667
116.27397742347537
108.80357430340251
104.50511568736157
102.18465079054253
101.00627838408538
100.44164037082726
100.18549490422672
100.07511240919169
100.02979101113911
100.01206586776041
100.00563650522137
100.00405228435612
100.00563616356399
100.01206498204101
100.02978913992557
100.07510869283678
100.18548755103451
100.44162776915162
101.00625759736053
102.18461597363323
104.50506611599307
108.8034943180043
116.27387615874837
128.43046969824687
146.9340322882962
173.2804744999314
208.42623757320652
208.428029092397
173.2822606767889
146.9358449663962
128.43227640403953
116.27563967599077
108.80523382596363
104.50676892836691
102.18629707910118
101.0079186627846
100.44327618019861
100.18712774562135
100.07674345599999
100.03142105604356
100.01369538568052
100.00726574418418
100.00568133574896
100.00726499013518
100.01369339271761
100.03141670045527
100.07673455986506
100.1871102250727
100.44324478765611
101.00786523418908
102.18620906114649
104.50663813000668
108.80503782455138
116.27538359424075
128.43193426166354
146.93544839981573
173.28183710015693
208.42752959741873
208.43276461419578
173.28715605062473
146.9408451236055
128.43733052969364
116.28071162601354
108.81030152331995
104.51182217065112
102.19133382970483
101.01294128024158
100.44828852483711
100.19213347314123
100.08174532131957
100.03642084663831
100.01869412774758
100.01226394933317
100.0106791763293
100.01226236192983
100.01868984360414
100.03641119261968
100.0817250174028
100.19209282776534
100.44821303529449
101.01280893970704
102.1911136061824
104.51148444166881
108.80980346872228
116.28004503551048
128.4364697591485
146.93984052867802
173.28607246883587
208.4316039867952
208.44508368111642
173.2998865432459
146.95382957053477
128.45044108470796
116.29385576884384
108.82342539835014
104.52490354197519
102.20437110037473
101.0259429244301
100.46126553517891
100.20509534459953
100.09469875311854
100.04936994607945
100.03164113512466
100.02520993186356
100.02362447768621
100.02520675904566
100.03163238593503
100.0493496447292
100.09465475659294
100.20500503572349
100.4610921557594
101.0256297306842
102.20383866412966
104.52406357801165
108.82217632385695
116.29214741774514
128.44824247369542
146.95123762657207
173.29706719259178
208.44217994299245
208.47532608726308
173.33110866224814
146.98564895806072
128.48252976305744
116.32598886464952
108.85548078033042
104.55683931088109
102.2361940058758
101.05768028152876
100.49294687736287
100.23674396669345
100.12633000022409
100.08099268395152
100.06325994929372
100.05682690783308
100.05524025881274
100.056820904707
100.06324303551523
100.0809523075142
100.12623982039834
100.23655346225227
100.49256904268223
101.05697625967024
102.2349645117401
104.55484363255358
108.8524561901771
116.32176012808354
128.4770336847398
146.9790906748945
173.32391539589878
208.4680172484208
208.54591426514455
173.4040150118931
147.05986960739216
128.55727556722474
116.40074248280287
108.92998650269725
104.63103351497776
102.3101189349978
101.13141398562479
100.56656237967012
100.31029403484351
100.19984704389294
100.15449431755017
100.13675479980047
100.13031871417337
100.12873011506372
100.13030798540751
100.13672393081164
100.15441858282986
100.19967279437762
100.30991469685559
100.5657851795297
101.12991850824984
102.30742702845056
104.62653056390434
108.92299079971309
116.39072580024593
128.54404252982272
147.04385572072076
173.38629135767926
208.52796413744636
208.70265919991454
173.5657860609837
147.2243470731148
128.7226546889953
116.56591001604782
109.09445980788554
104.7947595331331
102.47325194191374
101.29415385411558
100.72907378417082
100.47268598265039
100.36218182033377
100.3168037129899
100.29905353748786
100.29261285905423
100.29102131988535
100.29259477683574
100.29900046122236
100.31667006999442
100.36186541290031
100.47197620060072
100.7275719534275
101.29116724455855
102.4676977969893
104.78516325652487
109.07911186709548
116.54333995779183
128.6922100081172
147.18689551334742
173.52390470223634
208.6601978027982
209.0323355211483
173.90582017155225
147.56952458272485
129.0690821736857
116.91137185933903
109.43817715838465
105.1368358673037
102.81413729090801
101.63430674641688
101.06882868752564
100.81224506316055
100.70165227748241
100.65623683079191
100.63847172849877
100.63202485654664
100.63042926051567
100.63199615323293
100.63838589826055
100.65601544588516
100.70111386016029
100.81100191345894
101.06611473208984
101.6287284943459
102.80340328324586
105.11763419693666
109.40643431862954
116.86324398150072
129.00249852321338
147.48599630549575
173.81124850795626
208.93614206983034
209.6872812319855
174.58078986110525
148.2533319664062
129.75382410147355
117.59307197221086
110.11592191758706
105.81132470880175
103.48648655048441
102.30544741426407
101.7393592337571
101.48249459962248
101.37178219058588
101.32631920955689
101.30853613906487
101.30208206946169
101.30048142455102
101.3020391982182
101.30840577544409
101.32597555743273
101.37092566520198
101.48046327508762
101.73479198960072
102.29575450024078
103.46718037906767
105.77549485829442
110.05445013472215
117.49648880112981
129.61600787724203
148.07619787779828
174.37710943888732
209.47907748887613
210.91317403627724
175.842681887299
149.52822694740044
131.02681661321932
118.85808545879603
111.37292448601609
107.06263704048389
104.73448309760073
103.55174344304483
102.9848662721157
102.72766553609122
102.61682061237343
102.57130898780623
102.55350896598488
102.54704833409052
102.5454421756879
102.54698813019482
102.55332319367906
102.57080985395308
102.6155493618762
102.72457757431151
102.97773530129626
103.53615245051435
104.70237869101402
107.000793817812
111.26239058804582
118.67698541189003
130.75815641995715
149.1719140196878
175.424446712971
210.4826788559129
213.0715219491455
178.0602521293329
151.75949531468788
133.2459671192524
121.05919764465897
113.55993239687238
109.24144160828206
106.90913900995758
105.72451716679358
105.15686304950067
104.89937005241848
104.78842561776857
104.74288384353038
104.72507571875825
104.71861210870239
104.71700099708372
104.71853266622006
104.72482755296821
104.74220632338933
104.78666820490972
104.89501295582066
105.14656625745451
105.70140579548409
106.86008834975517
109.14354624645517
113.37750373195829
120.74515611245751
132.75632261156318
151.0810102584784
177.24051370859016
212.21863885809498
216.64566126432732
181.72201617693608
155.41582732610584
136.86350993389027
124.64093158460778
117.12303021879008
112.79597006446366
110.46020432191925
109.27436078707827
108.70635528982925
108.44879992374727
108.33786707861894
108.29234456325909
108.27454881968988
108.26809001713843
108.26647600366859
108.26799155682187
108.27423826941079
108.2914859291345
108.33560721160393
108.44310428433872
108.69264079584678
109.24290586063286
110.39172373090126
112.65501295414424
116.84998612710334
124.14696463757865
136.0387993381857
154.1997579716381
180.1794011715582
215.01734426074222
222.25015454930795
187.39769932720603
161.01980629484873
142.3504384283371
130.08716776121764
122.5554247679615
118.22526390235033
115.88970826654226
114.70471543524494
114.13740736318994
113.88027924995849
113.76957185452216
113.72415677727061
113.70640797673909
113.6999667170769
113.69835360913565
113.69985212584886
113.7060441440854
113.72314172651225
113.76687180120393
113.87339203696804
114.120593409931
114.66552667198864
115.80273208283172
118.04190354111512
122.1890539828025
129.39491564753402
141.12075399149805
158.97346921578117
184.61365559802053
219.17229304074388
230.5342031562247
195.8548351396402
168.85559529413206
150.10755557147655
137.83390814226956
130.3126683873775
125.99364686605857
123.66591055191482
122.4855353394364
121.92067460601633
121.66474215465837
121.55457979012714
121.5093987834
121.49174548660571
121.48533948589034
121.48373240183736
121.48521402215296
121.49134676145144
121.50828035835568
121.55158575723604
121.65704798891082
121.90173317362272
122.44094728453553
123.56575897679535
125.77929983560547
129.87566603918893
136.98436941485627
148.5240852978515
166.02903788521988
190.64879735387223
224.88064838024113
245.68858475130344
205.9227384240241
179.06249964363107
160.37170397241533
148.17763329499962
140.7112863251305
136.42600144419512
134.11713325535405
132.94652536452233
132.38642440565604
132.13267601495812
132.023448275005
131.97865739809956
131.9611638923658
131.9548100535683
131.95321594824995
131.95468180473006
131.96075213715446
131.97751325059016
132.02036992606781
132.12474445991145
132.36684368943295
132.90029569900238
134.0128469830397
136.2016714542997
140.2507663120975
147.2729558934013
158.6611915822686
175.8687343719673
200.12337620184277
228.4255442735761
