# vtk DataFile Version 2.0
Unstructured Grid Example
ASCII
DATASET UNSTRUCTURED_GRID

POINTS 961.0 float
0.100000001 0.00499999989 0
0.0966666639 0.00499999989 0
0.0933333337 0.00499999989 0
0.0900000036 0.00499999989 0
0.086666666 0.00499999989 0
0.0833333358 0.00499999989 0
0.0799999982 0.00499999989 0
0.0766666681 0.00499999989 0
0.0733333305 0.00499999989 0
0.0700000003 0.00499999989 0
0.0666666701 0.00499999989 0
0.0633333325 0.00499999989 0
0.0599999987 0.00499999989 0
0.0566666685 0.00499999989 0
0.0533333346 0.00499999989 0
0.0500000007 0.00499999989 0
0.0466666669 0.00499999989 0
0.043333333 0.00499999989 0
0.0399999991 0.00499999989 0
0.0366666652 0.00499999989 0
0.0333333351 0.00499999989 0
0.0299999993 0.00499999989 0
0.0266666673 0.00499999989 0
0.0233333334 0.00499999989 0
0.0199999996 0.00499999989 0
0.0166666675 0.00499999989 0
0.0133333337 0.00499999989 0
0.00999999978 0.00499999989 0
0.00666666683 0.00499999989 0
0.00333333341 0.00499999989 0
0.0 0.00499999989 0
0.100000001 0.00166666671 0
0.0966666639 0.00166666671 0
0.0933333337 0.00166666671 0
0.0900000036 0.00166666671 0
0.086666666 0.00166666671 0
0.0833333358 0.00166666671 0
0.0799999982 0.00166666671 0
0.0766666681 0.00166666671 0
0.0733333305 0.00166666671 0
0.0700000003 0.00166666671 0
0.0666666701 0.00166666671 0
0.0633333325 0.00166666671 0
0.0599999987 0.00166666671 0
0.0566666685 0.00166666671 0
0.0533333346 0.00166666671 0
0.0500000007 0.00166666671 0
0.0466666669 0.00166666671 0
0.043333333 0.00166666671 0
0.0399999991 0.00166666671 0
0.0366666652 0.00166666671 0
0.0333333351 0.00166666671 0
0.0299999993 0.00166666671 0
0.0266666673 0.00166666671 0
0.0233333334 0.00166666671 0
0.0199999996 0.00166666671 0
0.0166666675 0.00166666671 0
0.0133333337 0.00166666671 0
0.00999999978 0.00166666671 0
0.00666666683 0.00166666671 0
0.00333333341 0.00166666671 0
0.0 0.00166666671 0
0.100000001 -0.00166666671 0
0.0966666639 -0.00166666671 0
0.0933333337 -0.00166666671 0
0.0900000036 -0.00166666671 0
0.086666666 -0.00166666671 0
0.0833333358 -0.00166666671 0
0.0799999982 -0.00166666671 0
0.0766666681 -0.00166666671 0
0.0733333305 -0.00166666671 0
0.0700000003 -0.00166666671 0
0.0666666701 -0.00166666671 0
0.0633333325 -0.00166666671 0
0.0599999987 -0.00166666671 0
0.0566666685 -0.00166666671 0
0.0533333346 -0.00166666671 0
0.0500000007 -0.00166666671 0
0.0466666669 -0.00166666671 0
0.043333333 -0.00166666671 0
0.0399999991 -0.00166666671 0
0.0366666652 -0.00166666671 0
0.0333333351 -0.00166666671 0
0.0299999993 -0.00166666671 0
0.0266666673 -0.00166666671 0
0.0233333334 -0.00166666671 0
0.0199999996 -0.00166666671 0
0.0166666675 -0.00166666671 0
0.0133333337 -0.00166666671 0
0.00999999978 -0.00166666671 0
0.00666666683 -0.00166666671 0
0.00333333341 -0.00166666671 0
0.0 -0.00166666671 0
0.100000001 -0.00499999989 0
0.0966666639 -0.00499999989 0
0.0933333337 -0.00499999989 0
0.0900000036 -0.00499999989 0
0.086666666 -0.00499999989 0
0.0833333358 -0.00499999989 0
0.0799999982 -0.00499999989 0
0.0766666681 -0.00499999989 0
0.0733333305 -0.00499999989 0
0.0700000003 -0.00499999989 0
0.0666666701 -0.00499999989 0
0.0633333325 -0.00499999989 0
0.0599999987 -0.00499999989 0
0.0566666685 -0.00499999989 0
0.0533333346 -0.00499999989 0
0.0500000007 -0.00499999989 0
0.0466666669 -0.00499999989 0
0.043333333 -0.00499999989 0
0.0399999991 -0.00499999989 0
0.0366666652 -0.00499999989 0
0.0333333351 -0.00499999989 0
0.0299999993 -0.00499999989 0
0.0266666673 -0.00499999989 0
0.0233333334 -0.00499999989 0
0.0199999996 -0.00499999989 0
0.0166666675 -0.00499999989 0
0.0133333337 -0.00499999989 0
0.00999999978 -0.00499999989 0
0.00666666683 -0.00499999989 0
0.00333333341 -0.00499999989 0
0.0 -0.00499999989 0
0.100000001 -0.00833333377 0
0.0966666639 -0.00833333377 0
0.0933333337 -0.00833333377 0
0.0900000036 -0.00833333377 0
0.086666666 -0.00833333377 0
0.0833333358 -0.00833333377 0
0.0799999982 -0.00833333377 0
0.0766666681 -0.00833333377 0
0.0733333305 -0.00833333377 0
0.0700000003 -0.00833333377 0
0.0666666701 -0.00833333377 0
0.0633333325 -0.00833333377 0
0.0599999987 -0.00833333377 0
0.0566666685 -0.00833333377 0
0.0533333346 -0.00833333377 0
0.0500000007 -0.00833333377 0
0.0466666669 -0.00833333377 0
0.043333333 -0.00833333377 0
0.0399999991 -0.00833333377 0
0.0366666652 -0.00833333377 0
0.0333333351 -0.00833333377 0
0.0299999993 -0.00833333377 0
0.0266666673 -0.00833333377 0
0.0233333334 -0.00833333377 0
0.0199999996 -0.00833333377 0
0.0166666675 -0.00833333377 0
0.0133333337 -0.00833333377 0
0.00999999978 -0.00833333377 0
0.00666666683 -0.00833333377 0
0.00333333341 -0.00833333377 0
0.0 -0.00833333377 0
0.100000001 -0.0116666667 0
0.0966666639 -0.0116666667 0
0.0933333337 -0.0116666667 0
0.0900000036 -0.0116666667 0
0.086666666 -0.0116666667 0
0.0833333358 -0.0116666667 0
0.0799999982 -0.0116666667 0
0.0766666681 -0.0116666667 0
0.0733333305 -0.0116666667 0
0.0700000003 -0.0116666667 0
0.0666666701 -0.0116666667 0
0.0633333325 -0.0116666667 0
0.0599999987 -0.0116666667 0
0.0566666685 -0.0116666667 0
0.0533333346 -0.0116666667 0
0.0500000007 -0.0116666667 0
0.0466666669 -0.0116666667 0
0.043333333 -0.0116666667 0
0.0399999991 -0.0116666667 0
0.0366666652 -0.0116666667 0
0.0333333351 -0.0116666667 0
0.0299999993 -0.0116666667 0
0.0266666673 -0.0116666667 0
0.0233333334 -0.0116666667 0
0.0199999996 -0.0116666667 0
0.0166666675 -0.0116666667 0
0.0133333337 -0.0116666667 0
0.00999999978 -0.0116666667 0
0.00666666683 -0.0116666667 0
0.00333333341 -0.0116666667 0
0.0 -0.0116666667 0
0.100000001 -0.0149999997 0
0.0966666639 -0.0149999997 0
0.0933333337 -0.0149999997 0
0.0900000036 -0.0149999997 0
0.086666666 -0.0149999997 0
0.0833333358 -0.0149999997 0
0.0799999982 -0.0149999997 0
0.0766666681 -0.0149999997 0
0.0733333305 -0.0149999997 0
0.0700000003 -0.0149999997 0
0.0666666701 -0.0149999997 0
0.0633333325 -0.0149999997 0
0.0599999987 -0.0149999997 0
0.0566666685 -0.0149999997 0
0.0533333346 -0.0149999997 0
0.0500000007 -0.0149999997 0
0.0466666669 -0.0149999997 0
0.043333333 -0.0149999997 0
0.0399999991 -0.0149999997 0
0.0366666652 -0.0149999997 0
0.0333333351 -0.0149999997 0
0.0299999993 -0.0149999997 0
0.0266666673 -0.0149999997 0
0.0233333334 -0.0149999997 0
0.0199999996 -0.0149999997 0
0.0166666675 -0.0149999997 0
0.0133333337 -0.0149999997 0
0.00999999978 -0.0149999997 0
0.00666666683 -0.0149999997 0
0.00333333341 -0.0149999997 0
0.0 -0.0149999997 0
0.100000001 -0.0183333326 0
0.0966666639 -0.0183333326 0
0.0933333337 -0.0183333326 0
0.0900000036 -0.0183333326 0
0.086666666 -0.0183333326 0
0.0833333358 -0.0183333326 0
0.0799999982 -0.0183333326 0
0.0766666681 -0.0183333326 0
0.0733333305 -0.0183333326 0
0.0700000003 -0.0183333326 0
0.0666666701 -0.0183333326 0
0.0633333325 -0.0183333326 0
0.0599999987 -0.0183333326 0
0.0566666685 -0.0183333326 0
0.0533333346 -0.0183333326 0
0.0500000007 -0.0183333326 0
0.0466666669 -0.0183333326 0
0.043333333 -0.0183333326 0
0.0399999991 -0.0183333326 0
0.0366666652 -0.0183333326 0
0.0333333351 -0.0183333326 0
0.0299999993 -0.0183333326 0
0.0266666673 -0.0183333326 0
0.0233333334 -0.0183333326 0
0.0199999996 -0.0183333326 0
0.0166666675 -0.0183333326 0
0.0133333337 -0.0183333326 0
0.00999999978 -0.0183333326 0
0.00666666683 -0.0183333326 0
0.00333333341 -0.0183333326 0
0.0 -0.0183333326 0
0.100000001 -0.0216666665 0
0.0966666639 -0.0216666665 0
0.0933333337 -0.0216666665 0
0.0900000036 -0.0216666665 0
0.086666666 -0.0216666665 0
0.0833333358 -0.0216666665 0
0.0799999982 -0.0216666665 0
0.0766666681 -0.0216666665 0
0.0733333305 -0.0216666665 0
0.0700000003 -0.0216666665 0
0.0666666701 -0.0216666665 0
0.0633333325 -0.0216666665 0
0.0599999987 -0.0216666665 0
0.0566666685 -0.0216666665 0
0.0533333346 -0.0216666665 0
0.0500000007 -0.0216666665 0
0.0466666669 -0.0216666665 0
0.043333333 -0.0216666665 0
0.0399999991 -0.0216666665 0
0.0366666652 -0.0216666665 0
0.0333333351 -0.0216666665 0
0.0299999993 -0.0216666665 0
0.0266666673 -0.0216666665 0
0.0233333334 -0.0216666665 0
0.0199999996 -0.0216666665 0
0.0166666675 -0.0216666665 0
0.0133333337 -0.0216666665 0
0.00999999978 -0.0216666665 0
0.00666666683 -0.0216666665 0
0.00333333341 -0.0216666665 0
0.0 -0.0216666665 0
0.100000001 -0.0250000004 0
0.0966666639 -0.0250000004 0
0.0933333337 -0.0250000004 0
0.0900000036 -0.0250000004 0
0.086666666 -0.0250000004 0
0.0833333358 -0.0250000004 0
0.0799999982 -0.0250000004 0
0.0766666681 -0.0250000004 0
0.0733333305 -0.0250000004 0
0.0700000003 -0.0250000004 0
0.0666666701 -0.0250000004 0
0.0633333325 -0.0250000004 0
0.0599999987 -0.0250000004 0
0.0566666685 -0.0250000004 0
0.0533333346 -0.0250000004 0
0.0500000007 -0.0250000004 0
0.0466666669 -0.0250000004 0
0.043333333 -0.0250000004 0
0.0399999991 -0.0250000004 0
0.0366666652 -0.0250000004 0
0.0333333351 -0.0250000004 0
0.0299999993 -0.0250000004 0
0.0266666673 -0.0250000004 0
0.0233333334 -0.0250000004 0
0.0199999996 -0.0250000004 0
0.0166666675 -0.0250000004 0
0.0133333337 -0.0250000004 0
0.00999999978 -0.0250000004 0
0.00666666683 -0.0250000004 0
0.00333333341 -0.0250000004 0
0.0 -0.0250000004 0
0.100000001 -0.0283333343 0
0.0966666639 -0.0283333343 0
0.0933333337 -0.0283333343 0
0.0900000036 -0.0283333343 0
0.086666666 -0.0283333343 0
0.0833333358 -0.0283333343 0
0.0799999982 -0.0283333343 0
0.0766666681 -0.0283333343 0
0.0733333305 -0.0283333343 0
0.0700000003 -0.0283333343 0
0.0666666701 -0.0283333343 0
0.0633333325 -0.0283333343 0
0.0599999987 -0.0283333343 0
0.0566666685 -0.0283333343 0
0.0533333346 -0.0283333343 0
0.0500000007 -0.0283333343 0
0.0466666669 -0.0283333343 0
0.043333333 -0.0283333343 0
0.0399999991 -0.0283333343 0
0.0366666652 -0.0283333343 0
0.0333333351 -0.0283333343 0
0.0299999993 -0.0283333343 0
0.0266666673 -0.0283333343 0
0.0233333334 -0.0283333343 0
0.0199999996 -0.0283333343 0
0.0166666675 -0.0283333343 0
0.0133333337 -0.0283333343 0
0.00999999978 -0.0283333343 0
0.00666666683 -0.0283333343 0
0.00333333341 -0.0283333343 0
0.0 -0.0283333343 0
[...]
POINT_DATA 961.0
SCALARS Temp float 1
LOOKUP_TABLE default
305.99717647939286
274.3175776778413
250.58538378243463
233.9329648434567
223.00510929501974
216.29911570710377
212.44669078112202
210.37076282659638
209.31865717434513
208.81559608082608
208.58789977094614
208.4900086040996
208.44991381356505
208.43427125374737
208.42861024726201
208.4272175799534
208.4286102441803
208.434271244132
208.4499138156051
208.49000861002565
208.58789943896647
208.8155958690361
209.31865708360922
210.37076090132572
212.4466899739783
216.29910538125023
223.0051001759876
233.9329340980625
250.58535371826773
274.3175703118163
305.99712189107817
274.3176656445029
241.51507616123558
216.94083431886347
199.69684454583594
188.38018350232133
181.43516453991384
177.44514712582875
175.2949126512842
174.20506013796245
173.68390725020254
173.4480023007274
173.34657350119141
173.30502627551266
173.2888157540788
173.28294877922545
173.28150537272043
173.2829487760034
173.2888157440209
173.30502627735396
173.34657350656602
173.44800195469372
173.68390702538306
174.20506003037784
175.2949106240375
177.4451462122268
181.4351536663396
188.38017364958833
199.6968116825279
216.94080097301094
241.51505087537956
274.31757396051796
250.58546849775576
216.94083896574426
191.7336548101106
174.043519470539
162.43243026474926
155.30553678138028
151.2102620894604
149.00285300078525
147.88377872898985
147.3485319087913
147.10619156368682
147.00197177074247
146.95927152671487
146.94260743493044
146.9365751012006
146.9350908176841
146.93657509780786
146.94260742432823
146.95927152784313
147.00197177412886
147.10619120242495
147.34853166297236
147.8837785813494
149.00285083014253
151.210260944362
155.30552515360657
162.4324191056064
174.04348341709573
191.73361451274724
216.94080098977543
250.58535691893462
233.93305511027125
199.69685651859015
174.0435282818418
156.0375227807456
144.21683448064724
136.95963642540022
132.7884084223899
130.53942230431625
129.39892498416762
128.85325913617433
128.6061212183599
128.4998032898331
128.45622913628716
128.43921856370073
128.43305903187044
128.43154316170185
128.43305902828882
128.43921855249397
128.45622913633062
128.49980329022037
128.60612084172482
128.85325886465432
129.39892478240225
130.53941997168357
132.78840698278043
136.95962398851748
144.21682186895663
156.03748350348206
174.0434825520657
199.69681078157845
233.93293432526085
223.00522872381933
188.38022400360904
162.43246819591172
144.21686411594342
132.25614901422648
124.91120578722389
120.68837608653857
118.41087067893709
117.25552938945232
116.70256891648533
116.45203672609573
116.34421883153551
116.30001350857175
116.28275023998319
116.27649713494921
116.27495789702655
116.27649713117663
116.28275022816702
116.30001350735547
116.34421882848932
116.45203633521898
116.70256861870232
117.25552913080486
118.41086819220816
120.68837435840193
124.91119263911314
132.25613516141098
144.21682243987283
162.43241893786885
188.38017397523518
223.0051029243897
216.29924319540734
181.43520872270375
155.3055779626127
136.95966935027593
124.91120897049943
117.51076868451358
113.25495977420933
110.95901998304473
109.79396859138355
109.2361772815991
108.98336906899365
108.87453281262292
108.82989372133275
108.81245475108143
108.80613590953244
108.80458014517515
108.80613590558161
108.8124547387029
108.82989371887038
108.87453280624891
108.98336866605439
109.23617696050347
109.7939682823513
110.95901736938808
113.25495781070141
117.51075500369016
124.91119424217676
136.95962613424902
155.3055266378368
181.43515635136754
216.29911470031462
212.44682734477067
177.44520053554177
151.2103130908172
132.78845163252038
120.68838972644333
113.25497036388192
108.97933189287718
106.6721651470383
105.5011193063897
104.94030351836027
104.68604984384777
104.5765575405111
104.53163505093733
104.51407972914448
104.50771683434408
104.50614990903472
104.50771683023581
104.51407971628038
104.53163504736855
104.57655753127042
104.68604943152553
104.94030317884774
105.5011189583146
106.67216244097611
108.97932976284483
113.25495633283086
120.68837445410394
132.78840752133647
151.21026063053918
177.44514693523334
212.44669744104723
210.37089247070915
175.294963576815
149.0029031050455
130.53946518312813
118.41088415401431
110.95903049716311
106.67216507435948
104.35855221065422
103.18401279275957
102.62140671122648
102.36628371807335
102.25639051119036
102.21129208528177
102.19366342677895
102.18727239022262
102.18569827314798
102.18727238597083
102.1936634134943
102.21129208076593
102.25639049962838
102.3662832988924
102.62140635837603
103.18401241736152
104.35854944376135
106.67216283886856
110.95901625775826
118.41086857357705
130.53942058856202
149.0028500558196
175.29490935918855
210.37076186027446
209.31878159296883
174.2051107812079
147.88383005636445
129.39896956237195
117.25554474173269
109.79398107944182
105.50112123689036
103.18401481126966
102.00755146409595
101.44394279470895
101.18832451269677
101.0781988820865
101.03299667760943
101.01532403236001
101.00891586575321
101.00733732920729
101.00891586133389
101.01532401862926
101.03299667215146
101.07819886846436
101.18832408832164
101.44394243218734
102.0075510700939
103.18401200612801
105.50111893830689
109.79396672313446
117.25552899606778
129.39892471904196
147.8837767135095
174.20505626313795
209.31865063921077
208.8157201374202
173.68395746400913
147.34858230284763
128.85330276516027
116.70258334563977
109.23618887530414
104.94030455956964
102.62140784210261
101.44394190313545
100.87980145271148
100.62391561851202
100.51366207782843
100.46840169008605
100.45070393606163
100.4442858343445
100.44270470821462
100.44428582961882
100.45070392158397
100.46840168316797
100.51366206144473
100.62391518863267
100.87980108081611
101.44394149311019
102.6214050084752
104.9403022175771
109.23617444687143
116.70256750342249
128.85325778523662
147.34852880356488
173.6839027881539
208.81558900638709
208.58803292775096
173.4480524095811
147.10624049089475
128.60616309175458
116.45204932170319
108.98337879762013
104.68604899349604
102.36628293880604
101.18832169625495
100.62391368566156
100.3678906473052
100.25757022143239
100.21227880726498
100.19456740629265
100.18814381283119
100.18656123957868
100.18814380734239
100.1945673900034
100.21227879689005
100.2575701989064
100.36789020681452
100.62391329679092
101.18832125997535
102.36628006529006
104.68604659565293
108.98336429033188
116.45203338020889
128.60611798641366
147.10618685187654
173.44799759112183
208.58790164633476
208.49013709443003
173.3466182505191
147.00201507893215
128.49983934604023
116.34422544409452
108.87453642605858
104.5765504753877
102.25638344774204
101.07818973382503
100.51365378301635
100.25756384347358
100.14721014097742
100.10190297307359
100.08418450354874
100.07775801485465
100.07617466958096
100.077758007297
100.08418448231923
100.10190295317383
100.14721010149736
100.2575633743327
100.51365334840116
101.07818922794416
102.25638047302354
104.57654793856085
108.8745217354843
116.34420927588401
128.4997939716622
147.00196114164072
173.34656312110198
208.49000550124762
208.45001362188168
173.30505080747977
146.95929523033686
128.45624525591245
116.29999969990865
108.82987651538691
104.53160687150407
102.2112637000648
101.0329660660531
100.4683718393941
100.2122508164995
100.10188133132523
100.0565665330955
100.03884456840379
100.03241662117348
100.03083288113453
100.03241660805323
100.03884453369328
100.05656648668051
100.10188124371375
100.21225026480388
100.46837127061156
101.03296535319089
102.21126042218586
104.5316039139859
108.82986127059547
116.29998284120644
128.45619906588797
146.9592403837253
173.30499472173952
208.44988107916686
208.43431287949346
173.28878030077792
146.942570114721
128.4391718303933
116.28267208490423
108.81237206080677
104.51398523037697
102.19356812886483
101.0152261008174
100.45060649700514
100.19447165859934
100.0840950063608
100.03877666567915
100.02105304201254
100.01462438757989
100.01304045044508
100.01462436001154
100.02105297166406
100.0387765475375
100.08409478537939
100.19447087288702
100.45060553944799
101.01522477618887
102.19356393950025
104.51398098798239
108.8123551027375
116.2826530675508
128.43912307140062
146.94251238496716
173.28872116828643
208.43417731189862
208.42848066405423
173.28273516527383
146.93635112135263
128.4328200072218
116.27622244722173
108.80585348302307
104.50742022913258
102.18697329184417
101.00861297205324
100.4439826721849
100.18784186752663
100.07746203997792
100.0321420876542
100.01441768818177
100.00798869214923
100.00640465040436
100.0079886286241
100.01441752741741
100.03214178294989
100.07746146290556
100.18784044095702
100.44398062417957
101.00860989345414
102.18696643727458
104.50741216361023
108.80583135110666
116.27619682943833
128.43276331716365
146.9362844267445
173.28266651686258
208.4283356364867
208.4265907518888
173.280756588552
146.93431197042048
128.43073431033537
116.27410168956658
108.80370718678311
104.50525606368825
102.18479715186668
101.00642916118879
100.44179417017845
100.18565062932255
100.07526928061735
100.02994852277689
100.01222371797914
100.00579453084592
100.00421041182136
100.00579438194279
100.01222333804235
100.02994775367993
100.0752677920963
100.18564751717844
100.4417891794188
101.00642123555313
102.18478277234546
104.5052369968683
108.8036699215358
116.27405650137945
128.4306538511791
146.93421819817303
173.28065906036966
208.42641696825288
208.42649604525374
173.28065692890897
146.93420524632603
128.430619073667
116.27397742347537
108.80357430340251
104.50511568736155
102.18465079054252
101.00627838408543
100.44164037082733
100.18549490422683
100.07511240919187
100.02979101113921
100.0120658677605
100.0056365052214
100.00405228435618
100.0056361635641
100.01206498204101
100.0297891399256
100.07510869283678
100.1854875510345
100.44162776915154
101.00625759736049
102.18461597363317
104.50506611599299
108.80349431800421
116.27387615874817
128.43046969824667
146.93403228829604
173.28047449993124
208.4262375732063
208.4280290923969
173.28226067678878
146.93584496639613
128.43227640403958
116.27563967599073
108.80523382596365
104.50676892836694
102.18629707910124
101.00791866278463
100.44327618019864
100.18712774562145
100.07674345600016
100.0314210560437
100.0136953856806
100.00726574418428
100.00568133574905
100.00726499013525
100.01369339271764
100.03141670045528
100.0767345598651
100.18711022507271
100.44324478765604
101.00786523418894
102.18620906114639
104.50663813000658
108.80503782455129
116.27538359424061
128.43193426166332
146.93544839981558
173.28183710015676
208.42752959741853
208.43276461419563
173.28715605062465
146.94084512360556
128.43733052969364
116.2807116260136
108.81030152331998
104.51182217065116
102.19133382970489
101.0129412802416
100.4482885248371
100.19213347314127
100.08174532131964
100.03642084663839
100.01869412774766
100.01226394933327
100.0106791763294
100.01226236192994
100.01868984360422
100.03641119261971
100.08172501740282
100.1920928277653
100.44821303529437
101.01280893970694
102.19111360618226
104.51148444166871
108.8098034687222
116.28004503551037
128.43646975914837
146.93984052867793
173.2860724688357
208.4316039867951
208.44508368111636
173.29988654324598
146.95382957053477
128.45044108470796
116.29385576884388
108.82342539835021
104.52490354197523
102.20437110037474
101.02594292443015
100.46126553517897
100.20509534459956
100.09469875311862
100.04936994607955
100.03164113512474
100.02520993186366
100.0236244776863
100.02520675904574
100.03163238593507
100.04934964472922
100.09465475659292
100.20500503572343
100.46109215575936
101.02562973068413
102.2038386641295
104.52406357801154
108.82217632385677
116.29214741774503
128.4482424736953
146.9512376265719
173.2970671925916
208.44217994299234
208.47532608726303
173.3311086622482
146.98564895806086
128.4825297630575
116.32598886464956
108.85548078033042
104.55683931088109
102.2361940058759
101.05768028152883
100.49294687736291
100.2367439666935
100.12633000022413
100.08099268395159
100.06325994929378
100.05682690783318
100.05524025881284
100.05682090470715
100.06324303551528
100.08095230751425
100.12623982039845
100.23655346225223
100.49256904268212
101.0569762596702
102.23496451173993
104.55484363255343
108.85245619017698
116.32176012808338
128.47703368473967
146.97909067489437
173.32391539589858
208.46801724842064
208.54591426514455
173.4040150118932
147.0598696073923
128.55727556722476
116.40074248280285
108.9299865026973
104.63103351497783
102.31011893499789
101.13141398562493
100.56656237967023
100.31029403484362
100.19984704389303
100.15449431755025
100.13675479980056
100.13031871417346
100.12873011506375
100.13030798540761
100.13672393081175
100.15441858282996
100.19967279437768
100.30991469685566
100.5657851795297
101.12991850824972
102.30742702845042
104.62653056390418
108.92299079971296
116.39072580024578
128.5440425298226
147.04385572072047
173.38629135767903
208.5279641374461
208.7026591999145
173.5657860609837
147.22434707311484
128.72265468899536
116.56591001604782
109.0944598078856
104.79475953313325
102.4732519419138
101.29415385411569
100.72907378417094
100.47268598265049
100.36218182033389
100.31680371299001
100.299053537488
100.29261285905423
100.29102131988542
100.29259477683584
100.2990004612225
100.31667006999453
100.36186541290047
100.47197620060082
100.72757195342756
101.29116724455844
102.46769779698916
104.7851632565247
109.07911186709534
116.54333995779172
128.69221000811706
147.1868955133473
173.52390470223608
208.66019780279797
209.03233552114827
173.90582017155228
147.56952458272477
129.06908217368567
116.91137185933906
109.43817715838473
105.1368358673038
102.81413729090812
101.63430674641697
101.06882868752574
100.81224506316067
100.70165227748257
100.656236830792
100.63847172849883
100.63202485654678
100.63042926051575
100.63199615323302
100.63838589826072
100.65601544588534
100.70111386016045
100.81100191345904
101.06611473208983
101.62872849434582
102.80340328324571
105.11763419693648
109.40643431862941
116.86324398150062
129.00249852321326
147.4859963054957
173.81124850795607
208.9361420698301
209.68728123198562
174.58078986110527
148.2533319664062
129.75382410147355
117.59307197221092
110.11592191758717
105.81132470880183
103.48648655048447
102.30544741426411
101.73935923375723
101.48249459962258
101.37178219058598
101.32631920955694
101.30853613906497
101.30208206946176
101.30048142455114
101.30203919821825
101.30840577544416
101.32597555743283
101.3709256652021
101.48046327508763
101.73479198960067
102.29575450024068
103.46718037906756
105.77549485829432
110.05445013472198
117.49648880112967
129.61600787724194
148.07619787779825
174.37710943888732
209.47907748887607
210.91317403627735
175.84268188729908
149.52822694740047
131.0268166132193
118.85808545879603
111.3729244860162
107.06263704048405
104.73448309760077
103.55174344304488
102.98486627211574
102.72766553609127
102.61682061237346
102.57130898780623
102.55350896598495
102.5470483340906
102.54544217568792
102.54698813019489
102.5533231936791
102.57080985395315
102.61554936187625
102.72457757431152
102.9777353012962
103.53615245051424
104.70237869101382
107.00079381781191
111.26239058804568
118.67698541188993
130.75815641995712
149.17191401968773
175.42444671297102
210.48267885591306
213.07152194914556
178.06025212933292
151.75949531468794
133.2459671192524
121.05919764465895
113.55993239687241
109.24144160828217
106.90913900995768
105.72451716679363
105.15686304950073
104.8993700524185
104.78842561776854
104.74288384353038
104.72507571875825
104.71861210870247
104.7170009970838
104.71853266622009
104.72482755296829
104.74220632338937
104.78666820490973
104.89501295582065
105.14656625745452
105.701405795484
106.86008834975507
109.143546246455
113.37750373195826
120.74515611245751
132.7563226115632
151.08101025847833
177.24051370859016
212.2186388580951
216.64566126432734
181.7220161769361
155.41582732610584
136.8635099338902
124.64093158460771
117.12303021879006
112.79597006446375
110.46020432191932
109.27436078707835
108.70635528982926
108.44879992374734
108.33786707861894
108.29234456325908
108.27454881968988
108.26809001713852
108.26647600366861
108.26799155682194
108.27423826941076
108.29148592913445
108.33560721160393
108.44310428433873
108.6926407958468
109.24290586063279
110.39172373090126
112.65501295414415
116.84998612710326
124.14696463757868
136.03879933818573
154.19975797163806
180.1794011715582
215.01734426074216
222.25015454930784
187.39769932720594
161.01980629484868
142.35043842833696
130.0871677612176
122.55542476796145
118.22526390235033
115.88970826654221
114.70471543524499
114.13740736319002
113.88027924995853
113.76957185452211
113.7241567772706
113.70640797673911
113.69996671707689
113.69835360913565
113.69985212584884
113.70604414408535
113.72314172651217
113.76687180120392
113.87339203696796
114.120593409931
114.6655266719886
115.80273208283162
118.04190354111508
122.18905398280245
129.39491564753408
141.12075399149805
158.9734692157812
184.61365559802056
219.17229304074385
230.53420315622458
195.85483513964002
168.85559529413183
150.10755557147647
137.83390814226945
130.31266838737747
125.99364686605853
123.66591055191488
122.48553533943641
121.92067460601642
121.66474215465837
121.55457979012718
121.5093987834
121.49174548660575
121.48533948589032
121.48373240183736
121.48521402215293
121.49134676145137
121.50828035835559
121.55158575723593
121.65704798891086
121.90173317362272
122.44094728453551
123.5657589767953
125.7792998356054
129.87566603918893
136.98436941485627
148.52408529785146
166.02903788521985
190.64879735387237
224.88064838024113
245.68858475130324
205.92273842402386
179.06249964363096
160.3717039724152
148.17763329499957
140.71128632513035
136.42600144419515
134.11713325535408
132.94652536452236
132.3864244056561
132.13267601495812
132.02344827500494
131.97865739809959
131.96116389236573
131.95481005356837
131.95321594824998
131.95468180473003
131.9607521371544
131.9775132505901
132.02036992606776
132.1247444599114
132.36684368943298
132.9002956990024
134.01284698303968
136.2016714542997
140.25076631209748
147.27295589340133
158.6611915822686
175.86873437196726
200.1233762018428
228.42554427357626
