# vtk DataFile Version 2.0
Unstructured Grid Example
ASCII
DATASET UNSTRUCTURED_GRID

POINTS 961.0 float
0.100000001 0.00499999989 0
0.0966666639 0.00499999989 0
0.0933333337 0.00499999989 0
0.0900000036 0.00499999989 0
0.086666666 0.00499999989 0
0.0833333358 0.00499999989 0
0.0799999982 0.00499999989 0
0.0766666681 0.00499999989 0
0.0733333305 0.00499999989 0
0.0700000003 0.00499999989 0
0.0666666701 0.00499999989 0
0.0633333325 0.00499999989 0
0.0599999987 0.00499999989 0
0.0566666685 0.00499999989 0
0.0533333346 0.00499999989 0
0.0500000007 0.00499999989 0
0.0466666669 0.00499999989 0
0.043333333 0.00499999989 0
0.0399999991 0.00499999989 0
0.0366666652 0.00499999989 0
0.0333333351 0.00499999989 0
0.0299999993 0.00499999989 0
0.0266666673 0.00499999989 0
0.0233333334 0.00499999989 0
0.0199999996 0.00499999989 0
0.0166666675 0.00499999989 0
0.0133333337 0.00499999989 0
0.00999999978 0.00499999989 0
0.00666666683 0.00499999989 0
0.00333333341 0.00499999989 0
0.0 0.00499999989 0
0.100000001 0.00166666671 0
0.0966666639 0.00166666671 0
0.0933333337 0.00166666671 0
0.0900000036 0.00166666671 0
0.086666666 0.00166666671 0
0.0833333358 0.00166666671 0
0.0799999982 0.00166666671 0
0.0766666681 0.00166666671 0
0.0733333305 0.00166666671 0
0.0700000003 0.00166666671 0
0.0666666701 0.00166666671 0
0.0633333325 0.00166666671 0
0.0599999987 0.00166666671 0
0.0566666685 0.00166666671 0
0.0533333346 0.00166666671 0
0.0500000007 0.00166666671 0
0.0466666669 0.00166666671 0
0.043333333 0.00166666671 0
0.0399999991 0.00166666671 0
0.0366666652 0.00166666671 0
0.0333333351 0.00166666671 0
0.0299999993 0.00166666671 0
0.0266666673 0.00166666671 0
0.0233333334 0.00166666671 0
0.0199999996 0.00166666671 0
0.0166666675 0.00166666671 0
0.0133333337 0.00166666671 0
0.00999999978 0.00166666671 0
0.00666666683 0.00166666671 0
0.00333333341 0.00166666671 0
0.0 0.00166666671 0
0.100000001 -0.00166666671 0
0.0966666639 -0.00166666671 0
0.0933333337 -0.00166666671 0
0.0900000036 -0.00166666671 0
0.086666666 -0.00166666671 0
0.0833333358 -0.00166666671 0
0.0799999982 -0.00166666671 0
0.0766666681 -0.00166666671 0
0.0733333305 -0.00166666671 0
0.0700000003 -0.00166666671 0
0.0666666701 -0.00166666671 0
0.0633333325 -0.00166666671 0
0.0599999987 -0.00166666671 0
0.0566666685 -0.00166666671 0
0.0533333346 -0.00166666671 0
0.0500000007 -0.00166666671 0
0.0466666669 -0.00166666671 0
0.043333333 -0.00166666671 0
0.0399999991 -0.00166666671 0
0.0366666652 -0.00166666671 0
0.0333333351 -0.00166666671 0
0.0299999993 -0.00166666671 0
0.0266666673 -0.00166666671 0
0.0233333334 -0.00166666671 0
0.0199999996 -0.00166666671 0
0.0166666675 -0.00166666671 0
0.0133333337 -0.00166666671 0
0.00999999978 -0.00166666671 0
0.00666666683 -0.00166666671 0
0.00333333341 -0.00166666671 0
0.0 -0.00166666671 0
0.100000001 -0.00499999989 0
0.0966666639 -0.00499999989 0
0.0933333337 -0.00499999989 0
0.0900000036 -0.00499999989 0
0.086666666 -0.00499999989 0
0.0833333358 -0.00499999989 0
0.0799999982 -0.00499999989 0
0.0766666681 -0.00499999989 0
0.0733333305 -0.00499999989 0
0.0700000003 -0.00499999989 0
0.0666666701 -0.00499999989 0
0.0633333325 -0.00499999989 0
0.0599999987 -0.00499999989 0
0.0566666685 -0.00499999989 0
0.0533333346 -0.00499999989 0
0.0500000007 -0.00499999989 0
0.0466666669 -0.00499999989 0
0.043333333 -0.00499999989 0
0.0399999991 -0.00499999989 0
0.0366666652 -0.00499999989 0
0.0333333351 -0.00499999989 0
0.0299999993 -0.00499999989 0
0.0266666673 -0.00499999989 0
0.0233333334 -0.00499999989 0
0.0199999996 -0.00499999989 0
0.0166666675 -0.00499999989 0
0.0133333337 -0.00499999989 0
0.00999999978 -0.00499999989 0
0.00666666683 -0.00499999989 0
0.00333333341 -0.00499999989 0
0.0 -0.00499999989 0
0.100000001 -0.00833333377 0
0.0966666639 -0.00833333377 0
0.0933333337 -0.00833333377 0
0.0900000036 -0.00833333377 0
0.086666666 -0.00833333377 0
0.0833333358 -0.00833333377 0
0.0799999982 -0.00833333377 0
0.0766666681 -0.00833333377 0
0.0733333305 -0.00833333377 0
0.0700000003 -0.00833333377 0
0.0666666701 -0.00833333377 0
0.0633333325 -0.00833333377 0
0.0599999987 -0.00833333377 0
0.0566666685 -0.00833333377 0
0.0533333346 -0.00833333377 0
0.0500000007 -0.00833333377 0
0.0466666669 -0.00833333377 0
0.043333333 -0.00833333377 0
0.0399999991 -0.00833333377 0
0.0366666652 -0.00833333377 0
0.0333333351 -0.00833333377 0
0.0299999993 -0.00833333377 0
0.0266666673 -0.00833333377 0
0.0233333334 -0.00833333377 0
0.0199999996 -0.00833333377 0
0.0166666675 -0.00833333377 0
0.0133333337 -0.00833333377 0
0.00999999978 -0.00833333377 0
0.00666666683 -0.00833333377 0
0.00333333341 -0.00833333377 0
0.0 -0.00833333377 0
0.100000001 -0.0116666667 0
0.0966666639 -0.0116666667 0
0.0933333337 -0.0116666667 0
0.0900000036 -0.0116666667 0
0.086666666 -0.0116666667 0
0.0833333358 -0.0116666667 0
0.0799999982 -0.0116666667 0
0.0766666681 -0.0116666667 0
0.0733333305 -0.0116666667 0
0.0700000003 -0.0116666667 0
0.0666666701 -0.0116666667 0
0.0633333325 -0.0116666667 0
0.0599999987 -0.0116666667 0
0.0566666685 -0.0116666667 0
0.0533333346 -0.0116666667 0
0.0500000007 -0.0116666667 0
0.0466666669 -0.0116666667 0
0.043333333 -0.0116666667 0
0.0399999991 -0.0116666667 0
0.0366666652 -0.0116666667 0
0.0333333351 -0.0116666667 0
0.0299999993 -0.0116666667 0
0.0266666673 -0.0116666667 0
0.0233333334 -0.0116666667 0
0.0199999996 -0.0116666667 0
0.0166666675 -0.0116666667 0
0.0133333337 -0.0116666667 0
0.00999999978 -0.0116666667 0
0.00666666683 -0.0116666667 0
0.00333333341 -0.0116666667 0
0.0 -0.0116666667 0
0.100000001 -0.0149999997 0
0.0966666639 -0.0149999997 0
0.0933333337 -0.0149999997 0
0.0900000036 -0.0149999997 0
0.086666666 -0.0149999997 0
0.0833333358 -0.0149999997 0
0.0799999982 -0.0149999997 0
0.0766666681 -0.0149999997 0
0.0733333305 -0.0149999997 0
0.0700000003 -0.0149999997 0
0.0666666701 -0.0149999997 0
0.0633333325 -0.0149999997 0
0.0599999987 -0.0149999997 0
0.0566666685 -0.0149999997 0
0.0533333346 -0.0149999997 0
0.0500000007 -0.0149999997 0
0.0466666669 -0.0149999997 0
0.043333333 -0.0149999997 0
0.0399999991 -0.0149999997 0
0.0366666652 -0.0149999997 0
0.0333333351 -0.0149999997 0
0.0299999993 -0.0149999997 0
0.0266666673 -0.0149999997 0
0.0233333334 -0.0149999997 0
0.0199999996 -0.0149999997 0
0.0166666675 -0.0149999997 0
0.0133333337 -0.0149999997 0
0.00999999978 -0.0149999997 0
0.00666666683 -0.0149999997 0
0.00333333341 -0.0149999997 0
0.0 -0.0149999997 0
0.100000001 -0.0183333326 0
0.0966666639 -0.0183333326 0
0.0933333337 -0.0183333326 0
0.0900000036 -0.0183333326 0
0.086666666 -0.0183333326 0
0.0833333358 -0.0183333326 0
0.0799999982 -0.0183333326 0
0.0766666681 -0.0183333326 0
0.0733333305 -0.0183333326 0
0.0700000003 -0.0183333326 0
0.0666666701 -0.0183333326 0
0.0633333325 -0.0183333326 0
0.0599999987 -0.0183333326 0
0.0566666685 -0.0183333326 0
0.0533333346 -0.0183333326 0
0.0500000007 -0.0183333326 0
0.0466666669 -0.0183333326 0
0.043333333 -0.0183333326 0
0.0399999991 -0.0183333326 0
0.0366666652 -0.0183333326 0
0.0333333351 -0.0183333326 0
0.0299999993 -0.0183333326 0
0.0266666673 -0.0183333326 0
0.0233333334 -0.0183333326 0
0.0199999996 -0.0183333326 0
0.0166666675 -0.0183333326 0
0.0133333337 -0.0183333326 0
0.00999999978 -0.0183333326 0
0.00666666683 -0.0183333326 0
0.00333333341 -0.0183333326 0
0.0 -0.0183333326 0
0.100000001 -0.0216666665 0
0.0966666639 -0.0216666665 0
0.0933333337 -0.0216666665 0
0.0900000036 -0.0216666665 0
0.086666666 -0.0216666665 0
0.0833333358 -0.0216666665 0
0.0799999982 -0.0216666665 0
0.0766666681 -0.0216666665 0
0.0733333305 -0.0216666665 0
0.0700000003 -0.0216666665 0
0.0666666701 -0.0216666665 0
0.0633333325 -0.0216666665 0
0.0599999987 -0.0216666665 0
0.0566666685 -0.0216666665 0
0.0533333346 -0.0216666665 0
0.0500000007 -0.0216666665 0
0.0466666669 -0.0216666665 0
0.043333333 -0.0216666665 0
0.0399999991 -0.0216666665 0
0.0366666652 -0.0216666665 0
0.0333333351 -0.0216666665 0
0.0299999993 -0.0216666665 0
0.0266666673 -0.0216666665 0
0.0233333334 -0.0216666665 0
0.0199999996 -0.0216666665 0
0.0166666675 -0.0216666665 0
0.0133333337 -0.0216666665 0
0.00999999978 -0.0216666665 0
0.00666666683 -0.0216666665 0
0.00333333341 -0.0216666665 0
0.0 -0.0216666665 0
0.100000001 -0.0250000004 0
0.0966666639 -0.0250000004 0
0.0933333337 -0.0250000004 0
0.0900000036 -0.0250000004 0
0.086666666 -0.0250000004 0
0.0833333358 -0.0250000004 0
0.0799999982 -0.0250000004 0
0.0766666681 -0.0250000004 0
0.0733333305 -0.0250000004 0
0.0700000003 -0.0250000004 0
0.0666666701 -0.0250000004 0
0.0633333325 -0.0250000004 0
0.0599999987 -0.0250000004 0
0.0566666685 -0.0250000004 0
0.0533333346 -0.0250000004 0
0.0500000007 -0.0250000004 0
0.0466666669 -0.0250000004 0
0.043333333 -0.0250000004 0
0.0399999991 -0.0250000004 0
0.0366666652 -0.0250000004 0
0.0333333351 -0.0250000004 0
0.0299999993 -0.0250000004 0
0.0266666673 -0.0250000004 0
0.0233333334 -0.0250000004 0
0.0199999996 -0.0250000004 0
0.0166666675 -0.0250000004 0
0.0133333337 -0.0250000004 0
0.00999999978 -0.0250000004 0
0.00666666683 -0.0250000004 0
0.00333333341 -0.0250000004 0
0.0 -0.0250000004 0
0.100000001 -0.0283333343 0
0.0966666639 -0.0283333343 0
0.0933333337 -0.0283333343 0
0.0900000036 -0.0283333343 0
0.086666666 -0.0283333343 0
0.0833333358 -0.0283333343 0
0.0799999982 -0.0283333343 0
0.0766666681 -0.0283333343 0
0.0733333305 -0.0283333343 0
0.0700000003 -0.0283333343 0
0.0666666701 -0.0283333343 0
0.0633333325 -0.0283333343 0
0.0599999987 -0.0283333343 0
0.0566666685 -0.0283333343 0
0.0533333346 -0.0283333343 0
0.0500000007 -0.0283333343 0
0.0466666669 -0.0283333343 0
0.043333333 -0.0283333343 0
0.0399999991 -0.0283333343 0
0.0366666652 -0.0283333343 0
0.0333333351 -0.0283333343 0
0.0299999993 -0.0283333343 0
0.0266666673 -0.0283333343 0
0.0233333334 -0.0283333343 0
0.0199999996 -0.0283333343 0
0.0166666675 -0.0283333343 0
0.0133333337 -0.0283333343 0
0.00999999978 -0.0283333343 0
0.00666666683 -0.0283333343 0
0.00333333341 -0.0283333343 0
0.0 -0.0283333343 0
[...]
POINT_DATA 961.0
SCALARS Temp float 1
LOOKUP_TABLE default
149.55694525815048
129.2399814436001
125.85392354858845
125.28574815386725
125.1903667877113
125.1743272179123
125.17162906432604
125.17117482158467
125.17109832742682
125.1710854399807
125.17108326826053
125.17108290218367
125.17108284046515
125.17108283005888
125.17108282831194
125.17108282806576
125.17108282831195
125.17108283005882
125.17108284046512
125.17108290218384
125.17108326825905
125.17108543998165
125.17109832745368
125.17117482152487
125.17162906528512
125.17432721241859
125.19036679672678
125.28574800050839
125.85392353290308
129.24000097931247
149.55694831832074
129.2400247560396
108.45601562042255
104.96661859155815
104.38089882499695
104.28239089657755
104.26582075161615
104.26303097866783
104.26256119344512
104.2624820438078
104.2624687061286
104.2624664578399
104.26246607878822
104.2624660148683
104.26246600408919
104.26246600227938
104.26246600202434
104.26246600227935
104.26246600408916
104.26246601486824
104.26246607878834
104.2624664578384
104.26246870612937
104.26248204383604
104.26256119336861
104.26303097971352
104.26582074487938
104.28239091090592
104.38089857875879
104.96661905568999
108.45602414055936
129.2400027412853
125.85394985684138
104.9666119654028
101.43748359518949
100.84241737892948
100.74213697416997
100.72523234090679
100.7223828972045
100.72190245066496
100.72182143795298
100.72180777463915
100.72180547002046
100.72180508123027
100.72180501563572
100.7218050045689
100.72180500271014
100.72180500244811
100.72180500271011
100.72180500456898
100.72180501563578
100.72180508123044
100.72180547001881
100.72180777463979
100.72182143797917
100.72190245058319
100.722382898108
100.72523233400995
100.7421369777086
100.8424171334379
101.43748319339262
104.96661849710694
125.85392421973269
125.28577285899972
104.38089174283729
100.84241760860753
100.24391020449335
100.14277972664118
100.12570024611031
100.12281613891169
100.12232921649868
100.12224700752411
100.12223312881902
100.12223078565239
100.12223039005166
100.1222303232586
100.1222303119825
100.12223031008746
100.1222303098202
100.12223031008739
100.12223031198246
100.12223032325866
100.12223039005171
100.12223078565079
100.12223312881935
100.12224700754933
100.12232921639341
100.12281613977184
100.12570023790559
100.14277972805579
100.24390988915356
100.84241703413578
104.38089791831678
125.28574686458475
125.1903927105552
104.28238425903822
100.74213750404765
100.14278006377656
100.0413469375718
100.02418974228868
100.02128863679037
100.02079819757152
100.02071530380042
100.02070129453259
100.0206989271677
100.0206985271327
100.0206984595393
100.02069844811982
100.02069844619939
100.02069844592832
100.02069844619939
100.02069844811986
100.02069845953942
100.02069852713282
100.02069892716597
100.02070129453261
100.02071530382298
100.02079819745533
100.02128863752577
100.02418973367043
100.04134693349225
100.14277973319847
100.74213689365259
104.28239039047659
125.19036665670387
125.17435650758404
104.26581423785608
100.72523287818444
100.12570057882408
100.02418974079939
100.0070055833594
100.00409733954507
100.00360526280282
100.00352201744906
100.00350793715718
100.00350555584495
100.00350515315306
100.00350508506169
100.00350507355033
100.00350507161323
100.00350507133972
100.00350507161325
100.00350507355033
100.00350508506166
100.00350515315326
100.00350555584312
100.00350793715684
100.00352201747032
100.00360526267285
100.00409734023617
100.0070055742709
100.02418973543942
100.12570024474026
100.72523226250917
104.26582036178881
125.1743304459528
125.17165844299045
104.26302445759717
100.7223834261341
100.12281647749164
100.02128864265276
100.00409734730427
100.00118667563206
100.000693940423
100.00061053822044
100.00059642314845
100.00059403457767
100.00059363042094
100.00059356204314
100.0005935504769
100.00059354852962
100.00059354825453
100.00059354852961
100.00059355047695
100.00059356204322
100.0005936304211
100.00059403457576
100.00059642314794
100.0006105382405
100.00069394028779
100.00118667628541
100.00409733809812
100.0212886369771
100.12281614282489
100.72238280951309
104.26303058048259
125.17163238007166
125.17120067972849
104.26255433516744
100.7219029486534
100.12232955164806
100.02079820230988
100.00360526979006
100.00069393969444
100.00020098391849
100.00011752074312
100.0001033907011
100.00010099871595
100.00010059382579
100.0001005252962
100.00010051369955
100.00010051174634
100.00010051147041
100.00010051174634
100.0001005136996
100.00010052529619
100.00010059382586
100.00010099871402
100.00010339070036
100.00011752076256
100.00020098377982
100.00069394033787
100.00360526055347
100.02079819657716
100.12232921687169
100.72190233188829
104.26256045787787
125.17117461662671
125.17112032405306
104.26247486759989
100.72182192280914
100.12224733978333
100.02071530840054
100.0035220244909
100.0006105375901
100.00011752084677
100.00003403748555
100.00001990177819
100.0000175083674
100.00001710314393
100.00001703454086
100.00001702292869
100.00001702097218
100.00001702069588
100.00001702097222
100.00001702292865
100.00001703454079
100.0000171031439
100.00001750836533
100.00001990177743
100.00003403750469
100.0001175207072
100.00061053823093
100.00352201524835
100.0207153026567
100.12224700498894
100.72182130601955
104.26248099028315
125.17109426092415
125.17110746688736
104.26246176840782
100.72180825196368
100.122233461303
100.02070129887902
100.00350794414042
100.00059642248195
100.00010339077205
100.00001990174611
100.00000576418
100.00000337024116
100.0000029648821
100.00000289624661
100.00000288462721
100.0000028826692
100.00000288239242
100.00000288266922
100.00000288462724
100.00000289624663
100.00000296488214
100.00000337023923
100.0000057641793
100.00001990176511
100.00010339063225
100.00059642312219
100.00350793489669
100.0207012931333
100.12223312650545
100.72180763517014
104.26246789108683
125.1710814037533
125.17111254265744
104.2624596768116
100.7218059670709
100.12223111807424
100.02069893145352
100.00350556282814
100.00059403391002
100.00010099878811
100.00001750833627
100.00000337024215
100.0000009761313
100.00000057072288
100.00000050207454
100.00000049045195
100.00000048849324
100.00000048821644
100.00000048849326
100.00000049045192
100.00000050207444
100.00000057072295
100.00000097612934
100.0000033702414
100.00001750835524
100.00010099864814
100.00059403455012
100.00350555358426
100.02069892570748
100.12223078327621
100.7218053502767
104.26246579949249
125.1710864795171
125.17111255953581
104.26245930164002
100.72180558037354
100.12223072139496
100.02069853164888
100.0035051601343
100.00059362976087
100.00010059389993
100.00001710311462
100.00000296488484
100.00000057072457
100.00000016530021
100.00000009664724
100.00000008502342
100.00000008306449
100.00000008278745
100.0000000830644
100.00000008502337
100.00000009664723
100.00000016530024
100.00000057072266
100.00000296488403
100.00001710313362
100.00010059375995
100.00059363040097
100.00350515089022
100.02069852590269
100.12223038659681
100.72180496357939
104.26246542432087
125.17108649639513
125.17110522215415
104.26245911032385
100.72180547859631
100.12223065809374
100.02069846398643
100.00350509212637
100.00059356138722
100.00010052537202
100.00001703451171
100.00000289624936
100.00000050207623
100.0000000966472
100.00000002799274
100.00000001636847
100.00000001440945
100.00000001413244
100.0000000144094
100.00000001636852
100.00000002799273
100.00000009664733
100.00000050207424
100.0000028962486
100.00001703453071
100.00010052523199
100.00059356202723
100.00350508288226
100.02069845824025
100.12223032329561
100.72180486180211
104.26246523300222
125.17107915901896
125.1711048466701
104.26245860420043
100.72180552264884
100.12223064575984
100.02069845350076
100.00350508064913
100.00059354983686
100.00010051377666
100.0000170228999
100.00000288462998
100.00000049045364
100.00000008502336
100.00000001636857
100.0000000047441
100.0000000027849
100.00000000250802
100.00000000278493
100.00000000474411
100.0000000163685
100.00000008502346
100.00000049045163
100.0000028846292
100.00001702291885
100.00010051363662
100.00059355047696
100.00350507140509
100.0206984477546
100.12223031096167
100.72180490585453
104.26246472687868
125.17107878353596
125.1711050371679
104.26245961942298
100.72180552530891
100.12223065351536
100.02069845184045
100.00350507883807
100.00059354789806
100.0001005118254
100.00001702094364
100.000002882672
100.0000004884949
100.00000008306436
100.00000001440938
100.000000002785
100.00000000082574
100.00000000054887
100.00000000082576
100.00000000278496
100.00000001440937
100.00000008306442
100.0000004884929
100.00000288267121
100.0000170209626
100.00010051168545
100.00059354853819
100.00350506959404
100.02069844609424
100.12223031871709
100.72180490851463
104.262465742101
125.17107897403221
125.17111959691152
104.26245989952581
100.72180560282936
100.12223065514631
100.02069845230197
100.00350507861174
100.00059354763256
100.00010051155061
100.00001702066736
100.00000288239532
100.00000048821808
100.00000008278748
100.0000000141325
100.00000000250803
100.00000000054887
100.00000000027198
100.00000000054884
100.000000002508
100.0000000141324
100.0000000827875
100.00000048821609
100.0000028823945
100.0000170206863
100.00010051141057
100.00059354827269
100.00350506936772
100.02069844655584
100.12223032034805
100.72180498603504
104.26246602220894
125.17109353376475
125.17111959809658
104.26245989972
100.72180560374649
100.12223065538956
100.02069845275726
100.0035050788769
100.00059354791205
100.00010051182633
100.00001702094383
100.00000288267199
100.00000048849492
100.00000008306436
100.00000001440941
100.00000000278499
100.0000000008257
100.0000000005488
100.00000000082572
100.00000000278493
100.00000001440935
100.00000008306444
100.00000048849296
100.0000028826712
100.00001702096283
100.0001005116863
100.00059354855208
100.00350506963284
100.02069844701111
100.12223032059141
100.72180498695218
104.26246602240317
125.17109353494978
125.17110503794396
104.26245962807322
100.7218055268407
100.12223065796702
100.02069845377159
100.00350508083132
100.0005935498459
100.0001005137797
100.00001702290011
100.00000288463002
100.00000049045362
100.00000008502336
100.00000001636857
100.00000000474408
100.00000000278494
100.00000000250803
100.00000000278489
100.00000000474411
100.00000001636847
100.00000008502346
100.00000049045171
100.00000288462925
100.00001702291907
100.00010051363972
100.00059355048599
100.00350507158728
100.02069844802537
100.12223032316884
100.7218049100464
104.26246575075123
125.17107897480813
125.17110492084691
104.262458600339
100.72180556852193
100.12223065640936
100.020698465512
100.0035050921581
100.00059356141291
100.00010052537357
100.00001703451225
100.00000289624946
100.00000050207625
100.0000000966472
100.00000002799275
100.00000001636853
100.00000001440938
100.00000001413244
100.00000001440937
100.00000001636845
100.00000002799274
100.00000009664727
100.0000005020743
100.00000289624872
100.00001703453121
100.00010052523358
100.00059356205298
100.00350508291412
100.02069845976578
100.12223032161113
100.72180495172758
104.26246472301722
125.1710788577128
125.17110495675679
104.26245965743588
100.72180552541025
100.12223073072892
100.02069853135824
100.00350516029694
100.00059362976576
100.00010059390323
100.00001710311494
100.00000296488493
100.00000057072464
100.00000016530028
100.00000009664734
100.00000008502352
100.00000008306442
100.00000008278758
100.0000000830644
100.00000008502353
100.00000009664723
100.00000016530035
100.00000057072272
100.00000296488423
100.0000171031339
100.00010059376321
100.00059363040585
100.00350515105296
100.0206985256121
100.12223039593079
100.72180490861608
104.262465780114
125.17107889362123
125.17111975819867
104.26245929767934
100.72180602118733
100.12223111282137
100.02069893224099
100.00350556281302
100.00059403392747
100.00010099879033
100.00001750833765
100.00000337024325
100.00000097613234
100.00000057072391
100.00000050207554
100.000000490453
100.00000048849424
100.00000048821744
100.00000048849422
100.00000049045296
100.00000050207561
100.00000057072403
100.00000097613041
100.00000337024247
100.0000175083567
100.00010099865038
100.00059403456764
100.00350555356908
100.020698926495
100.12223077802346
100.72180540439331
104.26246542036311
125.17109369505391
125.17110787143243
104.26246227606582
100.72180821733612
100.12223346419484
100.02070129868304
100.0035079442038
100.00059642248661
100.00010339077272
100.00001990174496
100.00000576417871
100.00000337023974
100.00000296488075
100.00000289624528
100.00000288462573
100.00000288266781
100.0000028823911
100.0000028826678
100.00000288462579
100.00000289624514
100.0000029648808
100.00000337023789
100.00000576417798
100.00001990176396
100.00010339063282
100.00059642312695
100.00350793496035
100.02070129293801
100.12223312939821
100.72180760054411
104.26246839874624
125.17108180829905
125.17112026855905
104.26247462877237
100.72182191779007
100.12224734134156
100.0207153085656
100.00352202460003
100.00061053763254
100.00011752088258
100.00003403751953
100.00001990181187
100.00001750840103
100.00001710317756
100.00001703457454
100.00001702296238
100.00001702100596
100.0000170207295
100.0000170210059
100.00001702296235
100.00001703457454
100.00001710317761
100.0000175083991
100.00001990181113
100.00003403753868
100.00011752074309
100.0006105382738
100.00352201535941
100.0207153028247
100.12224700655368
100.72182130100765
104.26248075146677
125.17109420543962
125.17119690918207
104.26255380690378
100.7219030046336
100.12232954984489
100.02079820343714
100.00360526977164
100.00069393966427
100.0002009838702
100.00011752069395
100.00010339065152
100.00010099866634
100.00010059377625
100.0001005252466
100.00010051364994
100.00010051169677
100.00010051142078
100.00010051169667
100.00010051364994
100.00010052524655
100.00010059377624
100.00010099866441
100.0001033906508
100.00011752071315
100.00020098373143
100.00069394031024
100.00360526054082
100.02079819772568
100.12232921509633
100.72190238792682
104.26255992966644
125.171170846161
125.17165177523165
104.2630256074852
100.7223833902438
100.1228164942412
100.02128864417799
100.00409734906808
100.00118667721807
100.00069394201061
100.00061053980487
100.00059642473275
100.00059403616187
100.00059363200512
100.00059356362725
100.00059355206113
100.00059355011372
100.00059354983868
100.0005935501137
100.0005935520611
100.00059356362733
100.00059363200518
100.00059403615992
100.00059642473197
100.00061053982424
100.0006939418727
100.00118667787142
100.00409733989764
100.02128863856527
100.12281615980694
100.72238277386593
104.26303173086058
125.17162571265708
125.17437804349295
104.26581391462067
100.72523304628109
100.12570057826814
100.02418974485873
100.0070055860162
100.00409734228593
100.00360526551646
100.00352202016273
100.00350793987013
100.00350555855792
100.00350515586608
100.00350508777456
100.00350507626325
100.0035050743262
100.00350507405264
100.00350507432621
100.00350507626325
100.00350508777457
100.00350515586611
100.00350555855599
100.00350793986951
100.00352202018205
100.00360526538068
100.0040973429413
100.00700557692771
100.024189739997
100.12570024484863
100.72523243306343
104.26582004046298
125.1743519855842
125.19038908178652
104.282385497402
100.74213742817435
100.14278004404358
100.04134691206579
100.02418971811781
100.02128861239171
100.02079817317994
100.02071527940231
100.02070127013408
100.02069890276907
100.02069850273408
100.02069843514066
100.02069842372114
100.02069842180069
100.02069842152973
100.0206984218007
100.02069842372117
100.02069843514072
100.0206985027341
100.0206989027671
100.02070127013337
100.02071527942181
100.02079817304222
100.02128861306412
100.02418970900138
100.04134690798621
100.14277972053786
100.74213682437221
104.28239165340358
125.19036304005725
125.28577029822269
104.38089119288048
100.84241768150332
100.24391035149807
100.14277989052715
100.12570040805717
100.12281630098396
100.12232937851472
100.12224716953878
100.1222332908323
100.12223094766563
100.12223055206465
100.12223048527167
100.12223047399549
100.12223047210047
100.12223047183318
100.12223047210044
100.12223047399549
100.12223048527161
100.12223055206469
100.12223094766364
100.12223329083166
100.12224716955733
100.12232937838147
100.1228163016114
100.12570039918792
100.14277988486904
100.24391003615827
100.84241720901638
104.38089742604676
125.28574452283536
125.85394411231876
104.96660914826064
101.43748294069702
100.84241688817056
100.74213645671522
100.72523182427736
100.72238237994517
100.72190193338812
100.72182092066252
100.72180725734769
100.72180495272858
100.7218045639385
100.72180449834391
100.72180448727711
100.72180448541826
100.72180448515623
100.72180448541826
100.72180448727713
100.7218044983439
100.7218045639385
100.72180495272673
100.72180725734691
100.7218209206814
100.72190193324795
100.7223823806055
100.72523181492264
100.74213645366083
100.84241654069407
101.43748253890018
104.9666171712192
125.85391882891736
129.24000516451727
108.4560240035667
104.96662831069102
104.38090807687362
104.28240015543525
104.26583000419438
104.2630402312
104.26257044587238
104.26249129623103
104.26247795854981
104.26247571026094
104.26247533120919
104.2624752672893
104.2624752565101
104.26247525470035
104.26247525444525
104.26247525470026
104.26247525651003
104.26247526728923
104.26247533120934
104.26247571025915
104.26247795854914
104.2624912962482
104.26257044574238
104.26304023175295
104.2658299955558
104.28240014519854
104.38090777294732
104.96662728356281
108.45603252369004
129.2400052237014
149.55694803946827
129.23999422151286
125.85392714574083
125.28575179076432
125.19037035723363
125.17433078694907
125.1716326324009
125.1711783896255
125.17110189545039
125.17108900800301
125.1710868362825
125.17108647020557
125.17108640848707
125.17108639808067
125.17108639633379
125.17108639608756
125.17108639633376
125.17108639808073
125.17108640848703
125.1710864702057
125.17108683628071
125.17108900800221
125.17110189546804
125.17117838948883
125.17163263301912
125.17433077771776
125.1903703541277
125.2857514183802
125.85392677633973
129.23999168328214
149.55695109965615
