# vtk DataFile Version 2.0
Unstructured Grid Example
ASCII
DATASET UNSTRUCTURED_GRID

POINTS 961 float
0.100000001 0.00499999989 0
0.0966666639 0.00499999989 0
0.0933333337 0.00499999989 0
0.0900000036 0.00499999989 0
0.086666666 0.00499999989 0
0.0833333358 0.00499999989 0
0.0799999982 0.00499999989 0
0.0766666681 0.00499999989 0
0.0733333305 0.00499999989 0
0.0700000003 0.00499999989 0
0.0666666701 0.00499999989 0
0.0633333325 0.00499999989 0
0.0599999987 0.00499999989 0
0.0566666685 0.00499999989 0
0.0533333346 0.00499999989 0
0.0500000007 0.00499999989 0
0.0466666669 0.00499999989 0
0.043333333 0.00499999989 0
0.0399999991 0.00499999989 0
0.0366666652 0.00499999989 0
0.0333333351 0.00499999989 0
0.0299999993 0.00499999989 0
0.0266666673 0.00499999989 0
0.0233333334 0.00499999989 0
0.0199999996 0.00499999989 0
0.0166666675 0.00499999989 0
0.0133333337 0.00499999989 0
0.00999999978 0.00499999989 0
0.00666666683 0.00499999989 0
0.00333333341 0.00499999989 0
0 0.00499999989 0
0.100000001 0.00166666671 0
0.0966666639 0.00166666671 0
0.0933333337 0.00166666671 0
0.0900000036 0.00166666671 0
0.086666666 0.00166666671 0
0.0833333358 0.00166666671 0
0.0799999982 0.00166666671 0
0.0766666681 0.00166666671 0
0.0733333305 0.00166666671 0
0.0700000003 0.00166666671 0
0.0666666701 0.00166666671 0
0.0633333325 0.00166666671 0
0.0599999987 0.00166666671 0
0.0566666685 0.00166666671 0
0.0533333346 0.00166666671 0
0.0500000007 0.00166666671 0
0.0466666669 0.00166666671 0
0.043333333 0.00166666671 0
0.0399999991 0.00166666671 0
0.0366666652 0.00166666671 0
0.0333333351 0.00166666671 0
0.0299999993 0.00166666671 0
0.0266666673 0.00166666671 0
0.0233333334 0.00166666671 0
0.0199999996 0.00166666671 0
0.0166666675 0.00166666671 0
0.0133333337 0.00166666671 0
0.00999999978 0.00166666671 0
0.00666666683 0.00166666671 0
0.00333333341 0.00166666671 0
0 0.00166666671 0
0.100000001 -0.00166666671 0
0.0966666639 -0.00166666671 0
0.0933333337 -0.00166666671 0
0.0900000036 -0.00166666671 0
0.086666666 -0.00166666671 0
0.0833333358 -0.00166666671 0
0.0799999982 -0.00166666671 0
0.0766666681 -0.00166666671 0
0.0733333305 -0.00166666671 0
0.0700000003 -0.00166666671 0
0.0666666701 -0.00166666671 0
0.0633333325 -0.00166666671 0
0.0599999987 -0.00166666671 0
0.0566666685 -0.00166666671 0
0.0533333346 -0.00166666671 0
0.0500000007 -0.00166666671 0
0.0466666669 -0.00166666671 0
0.043333333 -0.00166666671 0
0.0399999991 -0.00166666671 0
0.0366666652 -0.00166666671 0
0.0333333351 -0.00166666671 0
0.0299999993 -0.00166666671 0
0.0266666673 -0.00166666671 0
0.0233333334 -0.00166666671 0
0.0199999996 -0.00166666671 0
0.0166666675 -0.00166666671 0
0.0133333337 -0.00166666671 0
0.00999999978 -0.00166666671 0
0.00666666683 -0.00166666671 0
0.00333333341 -0.00166666671 0
0 -0.00166666671 0
0.100000001 -0.00499999989 0
0.0966666639 -0.00499999989 0
0.0933333337 -0.00499999989 0
0.0900000036 -0.00499999989 0
0.086666666 -0.00499999989 0
0.0833333358 -0.00499999989 0
0.0799999982 -0.00499999989 0
0.0766666681 -0.00499999989 0
0.0733333305 -0.00499999989 0
0.0700000003 -0.00499999989 0
0.0666666701 -0.00499999989 0
0.0633333325 -0.00499999989 0
0.0599999987 -0.00499999989 0
0.0566666685 -0.00499999989 0
0.0533333346 -0.00499999989 0
0.0500000007 -0.00499999989 0
0.0466666669 -0.00499999989 0
0.043333333 -0.00499999989 0
0.0399999991 -0.00499999989 0
0.0366666652 -0.00499999989 0
0.0333333351 -0.00499999989 0
0.0299999993 -0.00499999989 0
0.0266666673 -0.00499999989 0
0.0233333334 -0.00499999989 0
0.0199999996 -0.00499999989 0
0.0166666675 -0.00499999989 0
0.0133333337 -0.00499999989 0
0.00999999978 -0.00499999989 0
0.00666666683 -0.00499999989 0
0.00333333341 -0.00499999989 0
0 -0.00499999989 0
0.100000001 -0.00833333377 0
0.0966666639 -0.00833333377 0
0.0933333337 -0.00833333377 0
0.0900000036 -0.00833333377 0
0.086666666 -0.00833333377 0
0.0833333358 -0.00833333377 0
0.0799999982 -0.00833333377 0
0.0766666681 -0.00833333377 0
0.0733333305 -0.00833333377 0
0.0700000003 -0.00833333377 0
0.0666666701 -0.00833333377 0
0.0633333325 -0.00833333377 0
0.0599999987 -0.00833333377 0
0.0566666685 -0.00833333377 0
0.0533333346 -0.00833333377 0
0.0500000007 -0.00833333377 0
0.0466666669 -0.00833333377 0
0.043333333 -0.00833333377 0
0.0399999991 -0.00833333377 0
0.0366666652 -0.00833333377 0
0.0333333351 -0.00833333377 0
0.0299999993 -0.00833333377 0
0.0266666673 -0.00833333377 0
0.0233333334 -0.00833333377 0
0.0199999996 -0.00833333377 0
0.0166666675 -0.00833333377 0
0.0133333337 -0.00833333377 0
0.00999999978 -0.00833333377 0
0.00666666683 -0.00833333377 0
0.00333333341 -0.00833333377 0
0 -0.00833333377 0
0.100000001 -0.0116666667 0
0.0966666639 -0.0116666667 0
0.0933333337 -0.0116666667 0
0.0900000036 -0.0116666667 0
0.086666666 -0.0116666667 0
0.0833333358 -0.0116666667 0
0.0799999982 -0.0116666667 0
0.0766666681 -0.0116666667 0
0.0733333305 -0.0116666667 0
0.0700000003 -0.0116666667 0
0.0666666701 -0.0116666667 0
0.0633333325 -0.0116666667 0
0.0599999987 -0.0116666667 0
0.0566666685 -0.0116666667 0
0.0533333346 -0.0116666667 0
0.0500000007 -0.0116666667 0
0.0466666669 -0.0116666667 0
0.043333333 -0.0116666667 0
0.0399999991 -0.0116666667 0
0.0366666652 -0.0116666667 0
0.0333333351 -0.0116666667 0
0.0299999993 -0.0116666667 0
0.0266666673 -0.0116666667 0
0.0233333334 -0.0116666667 0
0.0199999996 -0.0116666667 0
0.0166666675 -0.0116666667 0
0.0133333337 -0.0116666667 0
0.00999999978 -0.0116666667 0
0.00666666683 -0.0116666667 0
0.00333333341 -0.0116666667 0
0 -0.0116666667 0
0.100000001 -0.0149999997 0
0.0966666639 -0.0149999997 0
0.0933333337 -0.0149999997 0
0.0900000036 -0.0149999997 0
0.086666666 -0.0149999997 0
0.0833333358 -0.0149999997 0
0.0799999982 -0.0149999997 0
0.0766666681 -0.0149999997 0
0.0733333305 -0.0149999997 0
0.0700000003 -0.0149999997 0
0.0666666701 -0.0149999997 0
0.0633333325 -0.0149999997 0
0.0599999987 -0.0149999997 0
0.0566666685 -0.0149999997 0
0.0533333346 -0.0149999997 0
0.0500000007 -0.0149999997 0
0.0466666669 -0.0149999997 0
0.043333333 -0.0149999997 0
0.0399999991 -0.0149999997 0
0.0366666652 -0.0149999997 0
0.0333333351 -0.0149999997 0
0.0299999993 -0.0149999997 0
0.0266666673 -0.0149999997 0
0.0233333334 -0.0149999997 0
0.0199999996 -0.0149999997 0
0.0166666675 -0.0149999997 0
0.0133333337 -0.0149999997 0
0.00999999978 -0.0149999997 0
0.00666666683 -0.0149999997 0
0.00333333341 -0.0149999997 0
0 -0.0149999997 0
0.100000001 -0.0183333326 0
0.0966666639 -0.0183333326 0
0.0933333337 -0.0183333326 0
0.0900000036 -0.0183333326 0
0.086666666 -0.0183333326 0
0.0833333358 -0.0183333326 0
0.0799999982 -0.0183333326 0
0.0766666681 -0.0183333326 0
0.0733333305 -0.0183333326 0
0.0700000003 -0.0183333326 0
0.0666666701 -0.0183333326 0
0.0633333325 -0.0183333326 0
0.0599999987 -0.0183333326 0
0.0566666685 -0.0183333326 0
0.0533333346 -0.0183333326 0
0.0500000007 -0.0183333326 0
0.0466666669 -0.0183333326 0
0.043333333 -0.0183333326 0
0.0399999991 -0.0183333326 0
0.0366666652 -0.0183333326 0
0.0333333351 -0.0183333326 0
0.0299999993 -0.0183333326 0
0.0266666673 -0.0183333326 0
0.0233333334 -0.0183333326 0
0.0199999996 -0.0183333326 0
0.0166666675 -0.0183333326 0
0.0133333337 -0.0183333326 0
0.00999999978 -0.0183333326 0
0.00666666683 -0.0183333326 0
0.00333333341 -0.0183333326 0
0 -0.0183333326 0
0.100000001 -0.0216666665 0
0.0966666639 -0.0216666665 0
0.0933333337 -0.0216666665 0
0.0900000036 -0.0216666665 0
0.086666666 -0.0216666665 0
0.0833333358 -0.0216666665 0
0.0799999982 -0.0216666665 0
0.0766666681 -0.0216666665 0
0.0733333305 -0.0216666665 0
0.0700000003 -0.0216666665 0
0.0666666701 -0.0216666665 0
0.0633333325 -0.0216666665 0
0.0599999987 -0.0216666665 0
0.0566666685 -0.0216666665 0
0.0533333346 -0.0216666665 0
0.0500000007 -0.0216666665 0
0.0466666669 -0.0216666665 0
0.043333333 -0.0216666665 0
0.0399999991 -0.0216666665 0
0.0366666652 -0.0216666665 0
0.0333333351 -0.0216666665 0
0.0299999993 -0.0216666665 0
0.0266666673 -0.0216666665 0
0.0233333334 -0.0216666665 0
0.0199999996 -0.0216666665 0
0.0166666675 -0.0216666665 0
0.0133333337 -0.0216666665 0
0.00999999978 -0.0216666665 0
0.00666666683 -0.0216666665 0
0.00333333341 -0.0216666665 0
0 -0.0216666665 0
0.100000001 -0.0250000004 0
0.0966666639 -0.0250000004 0
0.0933333337 -0.0250000004 0
0.0900000036 -0.0250000004 0
0.086666666 -0.0250000004 0
0.0833333358 -0.0250000004 0
0.0799999982 -0.0250000004 0
0.0766666681 -0.0250000004 0
0.0733333305 -0.0250000004 0
0.0700000003 -0.0250000004 0
0.0666666701 -0.0250000004 0
0.0633333325 -0.0250000004 0
0.0599999987 -0.0250000004 0
0.0566666685 -0.0250000004 0
0.0533333346 -0.0250000004 0
0.0500000007 -0.0250000004 0
0.0466666669 -0.0250000004 0
0.043333333 -0.0250000004 0
0.0399999991 -0.0250000004 0
0.0366666652 -0.0250000004 0
0.0333333351 -0.0250000004 0
0.0299999993 -0.0250000004 0
0.0266666673 -0.0250000004 0
0.0233333334 -0.0250000004 0
0.0199999996 -0.0250000004 0
0.0166666675 -0.0250000004 0
0.0133333337 -0.0250000004 0
0.00999999978 -0.0250000004 0
0.00666666683 -0.0250000004 0
0.00333333341 -0.0250000004 0
0 -0.0250000004 0
0.100000001 -0.0283333343 0
0.0966666639 -0.0283333343 0
0.0933333337 -0.0283333343 0
0.0900000036 -0.0283333343 0
0.086666666 -0.0283333343 0
0.0833333358 -0.0283333343 0
0.0799999982 -0.0283333343 0
0.0766666681 -0.0283333343 0
0.0733333305 -0.0283333343 0
0.0700000003 -0.0283333343 0
0.0666666701 -0.0283333343 0
0.0633333325 -0.0283333343 0
0.0599999987 -0.0283333343 0
0.0566666685 -0.0283333343 0
0.0533333346 -0.0283333343 0
0.0500000007 -0.0283333343 0
0.0466666669 -0.0283333343 0
0.043333333 -0.0283333343 0
0.0399999991 -0.0283333343 0
0.0366666652 -0.0283333343 0
0.0333333351 -0.0283333343 0
0.0299999993 -0.0283333343 0
0.0266666673 -0.0283333343 0
0.0233333334 -0.0283333343 0
0.0199999996 -0.0283333343 0
0.0166666675 -0.0283333343 0
0.0133333337 -0.0283333343 0
0.00999999978 -0.0283333343 0
0.00666666683 -0.0283333343 0
0.00333333341 -0.0283333343 0
0 -0.0283333343 0
0.100000001 -0.0316666663 0
[...]
POINT_DATA 961
SCALARS Temp float 1
LOOKUP_TABLE default
325.58170475768065
293.4201024113746
268.22214946806224
249.70062417845728
236.8370290322123
228.40184472103184
223.1773920217394
220.11823659653072
218.42225926494487
217.53038037131265
217.08452172296518
216.8721623477504
216.77562592430868
216.7338260833209
216.71707064402872
216.71227942114692
216.71547559591562
216.7292963919296
216.76462630330414
216.84692202026827
217.0291820429854
217.4144991550463
218.19096531604177
219.67912638771853
222.38600090001665
227.0499970068045
234.65112627643177
246.35752888308528
263.3930625764737
286.8278854731865
317.63724119073555
295.4282882106625
261.7016671090688
235.58324629884564
216.34813589300796
202.96350268355042
194.16478795466475
188.69978862648372
185.48993891500413
183.70464005489148
182.7626492093361
182.29014690751703
182.06433965300252
181.96135191117372
181.91661888138526
181.89863806555587
181.89348756781726
181.8969260819181
181.91176886571444
181.94961200380627
182.03749333326422
182.23149832746975
182.64029404206244
183.46134215770678
185.02977114898997
187.87349431228927
192.7582530290691
200.69631994665102
212.88968745859208
230.5893983499022
254.89829926805498
286.3682452839796
271.7466412352343
237.18259513381653
210.32328019925438
190.54625607000227
176.7648965504883
167.68886534708597
162.03945679242963
158.71337243245554
156.85870940690393
155.87752461074507
155.3840319221733
155.14755386449622
155.03941051470252
154.99231749825827
154.9733457359104
154.967905141373
154.9715456127266
154.98722974121569
155.02713227124553
155.11957039062213
155.3231148909315
155.75090407093634
156.60788420412513
158.24080048340232
161.19417022407066
166.25539663136985
174.46219626281476
187.04240664383732
205.2689588648789
230.22604078402622
262.5880098591582
254.25474306355343
219.11540771249568
191.77538258518393
171.6170937446064
157.5548663990797
148.28068636725982
142.49839423728224
139.0877967135901
137.1822298978453
136.17201000680703
135.6628205600941
135.41828860057637
135.30621880166638
135.25731318229458
135.23757527574847
135.23191107970325
135.23571407246018
135.2520645141518
135.2935888185319
135.38959642415097
135.6005756786079
136.04309877877517
136.92783848716041
138.61040670198568
141.6479848418709
146.84452639770151
155.25727556325018
168.1345525428594
186.76617403870858
212.2637792822826
245.32110265895182
242.0060911016214
206.50803730642733
178.86606977361123
158.4657862606525
144.21990742052654
134.81412272951826
128.94233768666186
125.47408437187532
123.53335283669009
122.50282800837482
121.98252929824754
121.73223068902944
121.6173179208706
121.56708616862451
121.54678325778669
121.54095496674434
121.54488416715215
121.56174175432616
121.60449218599531
121.70318206702412
121.91971600055936
122.37319027072834
123.27847192456504
124.99765838949574
128.09721019913428
133.39329044335963
141.95783070958265
155.05516678308447
173.99257666039068
199.89836776164194
233.4794535179207
233.88038541098487
198.17646941959612
170.35999940733467
149.8175296932059
135.46147681115187
125.97487562613357
120.04705620866186
116.54205897864475
114.57854491542541
113.53465755467325
113.00693782991901
112.75273167820136
112.63586611809623
112.58471201283116
112.56401243735499
112.55806982029704
112.5620935632158
112.57932188619773
112.62296173950524
112.72358404183038
112.94409434358946
113.40536410372499
114.32520061345228
116.07024582723052
119.21348494709888
124.57975188921536
133.25161138449968
146.50554408075035
165.66147417258952
191.85917862399938
225.81297685181684
228.77182899279467
192.96123566099686
165.05296391754524
144.43415671323527
130.0174684710654
120.48521466070206
114.52493042252576
110.99815059952145
109.02084292239171
107.96870523610515
107.43631866778082
107.17961232330357
107.06147681125304
107.00971395668535
106.98874976031891
106.98273176374566
106.98682381688405
107.00431236216214
107.04857105137573
107.15052776981818
107.37376490383248
107.84034815140102
108.77005646622992
110.53257837799761
113.7052878769277
119.11889661991756
127.8632694524117
141.22321035331285
160.5271505360555
186.92217492089557
221.1270223336331
225.72577389432604
189.86646044861044
161.9151562312818
141.25944544044305
126.8124596432445
117.2566240796217
111.27903147942583
107.74029464406952
105.75521212989443
104.6983101477629
104.16316780695644
103.90495422217136
103.78603827161567
103.73389482916635
103.71276319001545
103.70669833577695
103.7108379944131
103.72850190672379
103.77317355727803
103.87601346068574
104.10104182556009
104.57109254190719
105.50720801151434
107.28102638267306
110.47273297375038
115.91681459184284
124.70782240064118
138.13586217830672
157.5346744765547
184.05576343084076
218.4203848946578
224.00103773803335
188.12319502534498
160.15466119842435
139.4833581407198
125.02289487251528
115.45606267157663
109.47004989586686
105.92527310949664
103.93612969365172
102.87666372242003
102.33999769145035
102.08092995477058
101.96156165666336
101.90919320887227
101.88796126140886
101.88186907956978
101.88604073716571
101.90381813147009
101.94875411330877
102.05215430990441
102.27830979699715
102.75052662803594
103.69061981434038
105.47141550328014
108.67480752885484
114.13756893179901
122.9570704900346
136.42657019500064
155.88290818319
182.4800984549313
216.9407462164142
223.07217508331897
187.1894927449954
159.21574585246665
138.53909667376567
124.07352732310535
114.50218676187703
108.51249621409673
104.96494038537027
102.9738449417923
101.91309920092107
101.37564710856763
101.1161255651263
100.99651051443824
100.94401650887511
100.92272778926944
100.91662075785315
100.92081315780172
100.93866108149403
100.98375937996562
101.08750032266593
101.31433520313492
101.78784716370853
102.73030145429713
104.51521216685333
107.72545602569289
113.19911100259922
122.03514061143696
135.5285590680729
155.01790212171767
181.658520516505
216.17369265980653
222.59549412808275
186.7130602546507
158.73881013723482
138.0610632050005
123.59405269571641
114.02119070762872
108.03010743985666
104.48140969354176
102.48946083491415
101.42812704635404
100.89029844194633
100.63055163150503
100.51081022190223
100.45825022330104
100.436931218478
100.43081674721574
100.43502210734601
100.45291213746323
100.49810606967371
100.60204568180511
100.82927283770535
101.30352582385461
102.24731967575609
104.03454667251098
107.2486186076531
112.72831604536498
121.57344911976936
135.07995148184722
154.58722998777276
181.25130310510676
215.79576013790881
222.36195257052447
186.48100576293191
158.50759985282235
137.83014942701786
123.36303939673115
113.78984783185228
107.79834886795041
104.24925017675871
102.25696962585067
101.19539023140157
100.65739543479525
100.39754463070294
100.27774265915086
100.22515006205407
100.20381586748348
100.19769801541545
100.20191116886596
100.2198253385046
100.26507331986524
100.36912395292536
100.59656800426924
101.07122658363758
102.01574657404991
103.80421758298125
107.02032719319683
112.50321335732778
121.35311068214908
134.86640636999843
154.38292859602188
181.05900913784262
215.6183699850193
222.2526096858684
186.37299885536754
158.4005017299717
137.7235862118433
123.25672120496922
113.6835787567972
107.6920185749429
104.14281373993106
102.15042395729752
101.08875327068915
100.55069152419179
100.2907962590604
100.17096715776096
100.11835942687011
100.09701806755538
100.09089884995666
100.09511648961217
100.11304391790134
100.15832114528183
100.26243113697787
100.48998983853816
100.96486045649075
101.90975602001727
103.69886381864603
106.91600606998676
112.4004926718695
121.25275932040608
134.769404470416
154.2904485442279
180.9723616752355
215.53891762885021
222.2039322209782
186.32519068603784
158.3533186704525
137.67681201609426
123.21018259838941
113.6371510702417
107.64562271626338
104.09640724419265
102.10398981253076
101.0422894314833
100.50420295294498
100.24428987208988
100.1244492450965
100.07183480563947
100.05049020770542
100.0443704816834
100.04859054209057
100.06652486587062
100.11181709122067
100.21595715572381
100.44357325867618
100.91854881437106
101.86362816494764
103.65304418894354
106.87068102932761
112.35592649324258
121.20930597933184
134.7275105907623
154.25064332635108
180.93523170853493
215.5050679759172
222.18422613195028
186.30593155303467
158.33438697945797
137.6581015900419
123.19160719501296
113.61864704019484
107.62714790124946
104.07793720509429
102.08551291667071
101.02380206203017
100.48570570403407
100.22578498302798
100.10593916028151
100.0533215759282
100.03197540505847
100.02585539581605
100.03007656969795
100.04801410432806
100.09331326164937
100.19746706661999
100.42510907870118
100.90013143735342
101.84529182575135
103.63484228671295
106.85269264521781
112.33826258111044
121.19211367829503
134.71097384774345
154.2349782785135
180.92067611833517
215.4918654525256
222.17945696308905
186.30128072103636
158.32981647529368
137.65357830033872
123.18710526435466
113.61414859420488
107.62264245396135
104.07342014350431
102.08098362156835
101.01926213389241
100.48115760141017
100.22123115956153
100.10138164262914
100.04876185769211
100.02741452059757
100.02129407619144
100.02551543643388
100.04345389612287
100.08875512545916
100.19291296827703
100.42056240089153
100.89559783335842
101.8407803635739
103.63036686803719
106.84827356921356
112.33392800300108
121.18790058882438
134.70692814237412
154.23115355254308
180.91713105027597
215.48865972307854
222.18606030552016
186.30770576753167
158.33608669969047
137.65971765938454
123.19313724201771
113.62009540093693
107.6285241990006
104.07925417177715
102.08678412659178
101.02504011740015
100.48692112895883
100.2269858241452
100.10713111562613
100.05450841668797
100.03315948901891
100.02703814134979
100.03125882741998
100.04919641095516
100.09449597860056
100.19865040397036
100.42629299441239
100.90131539400961
101.84647439638913
103.63602062633258
106.85386189338404
112.3394153090524
121.19323952926739
134.71205951891747
154.23600794658933
180.92163232915442
215.49273047118922
222.20899490536044
186.3301073644588
158.3580416612964
137.6813097352896
123.21444432573692
113.64118672095756
107.64945842027589
104.1000786242551
102.1075350864688
101.045743988725
100.50759613947231
100.24764390919434
100.12777969100343
100.07515183249312
100.05380009944702
100.04767698556688
100.0518959135956
100.06983058186337
100.1151242517668
100.21926658113735
100.44688524852783
100.92186250395294
101.86694043380933
103.65634814733122
106.87396425499057
112.3591693446091
121.21248042916692
134.73058003324184
154.25356367624175
180.9379538658284
215.50754135686657
222.26447419224957
186.38458018805864
158.41166384778145
137.73423580193847
123.2668206093372
113.6931453322645
107.70111266431111
104.15152063054984
102.15883569890728
101.09695471431445
100.55875234737105
100.29876855081541
100.1788868553771
100.126249659828
100.10489290585713
100.09876659093179
100.10298215498709
100.12091095816922
100.16619244079197
100.27030932675099
100.49787688229999
100.97275622944893
101.91765576071411
103.70675442232697
106.92386160341644
112.40826991797822
121.26039450774198
134.77681239346398
154.2975249359521
180.9789890320604
215.54497393815444
222.38818799847584
186.5067533370617
158.5324989177726
137.8539462924394
123.38562090786598
113.81123941367672
107.81868332466766
104.26872174694225
102.27578865286738
101.21374930236344
100.67545086765261
100.41541160975135
100.29549938094483
100.24284600702741
100.2214806431708
100.21534887944716
100.21955864106518
100.23747703849226
100.28273633163387
100.38680582667321
100.61427614928944
101.08896548279142
102.03351222187491
103.82198893151362
107.03805534358709
112.5208104013753
121.37044107134011
134.88328388433504
154.39912112262576
181.07425177190274
215.6323850460295
222.6509576717335
186.76778528177937
158.7918988188573
138.1118734669085
123.64228101390574
114.06686596169436
108.07351321611749
104.52297244444557
102.52964219860525
101.46734587634845
100.92889027651078
100.66875994378663
100.5487975713786
100.49611771769813
100.47473836729885
100.46859784647432
100.47279824707745
100.49069944646145
100.53592106854742
100.63990808260786
100.86720520092115
101.34154857741798
102.28543972338845
104.07273858634528
107.28679967332374
112.76631946934059
121.61100236267953
135.11666731296225
154.62261566517066
181.28478882829668
215.82674308712745
223.18430944659556
187.3007116434247
159.32394431647273
138.6427544795321
124.17190200679099
114.59529472549137
108.60092703875206
105.04959693141275
103.05570004138393
101.99302556623768
101.45433390249153
101.19406497741818
101.07402573079193
101.0213051752048
100.99990439073649
100.99375057928572
100.99793676135879
101.01581122605253
101.06097263513274
101.1648243169633
101.39183022095428
101.86557844846769
102.80831741219747
104.59350498139672
107.80390635548959
113.27742612375796
122.1128024613916
135.60480054912793
155.0917243839795
181.72875292929078
216.23908662914354
224.21751202197208
188.3389650736072
160.3650755345192
139.68504036388262
125.21417167556078
115.6369070548803
109.64165579393728
106.08948015163837
104.09490198551273
103.03173966541848
102.49272935174562
102.2322676710759
102.11211939775333
102.0593404367183
102.03790878132682
102.0317359593799
102.03590182717575
102.0537372171346
102.09880802397286
102.20245039620471
102.42899425692977
102.90177545756323
103.84260033581259
105.62420800306583
108.82828754197624
114.29126954705599
123.11006276905135
136.5774055741794
156.02965192501463
182.62045452270198
217.07224760201692
226.1241018752812
190.26531567402952
162.30483546065065
141.63290712900425
127.16621440360633
117.59057051132832
111.59552235066072
108.04292779528228
106.04777631494022
104.98410806006343
104.44472853892518
104.18402811020935
104.06373893764217
104.01088242853922
103.9894092038207
103.98321084197251
103.98734949925988
104.0051313463769
104.05007408998314
104.15341182234961
104.3792649171286
104.85056410745676
105.78838744619777
107.5642612870307
110.75801855519346
116.20349713510606
124.99433342292379
138.41958783784844
157.81202697660703
184.32244251160458
218.67175544949376
229.4694749837704
193.66267302009965
165.73907330807089
145.09114258982464
130.63859720130588
121.07035286975538
115.07858075683954
111.52704610387997
109.53194679430982
108.46798897232685
107.92828643481006
107.66733688254318
107.54688612629081
107.49393558195003
107.47241036799262
107.46617991783738
107.47028457583943
107.48799794835188
107.53277118705869
107.6356925837917
107.86057420024838
108.32973424163337
109.26312068998442
111.03033121382101
114.20817774830243
119.62619058353619
128.37247540834093
141.72979560188816
161.02471361947204
187.40301453148436
221.5828689237277
235.04222188314807
199.34868592975735
171.50693491159356
150.9138144270409
136.49513713101527
126.94608046217579
120.96413971226885
117.41703156631594
115.42356134200097
114.35997499932071
113.82018769615657
113.55905483714493
113.43844926866564
113.38539705243808
113.36381207036743
113.3575441510813
113.36160946268508
113.37924157860428
113.4238054172846
113.52619345457559
113.74979093049326
114.21604436354112
115.14325102511455
116.89812025147923
120.05282973687058
125.43014888584736
134.10933949172355
147.36296607767736
166.5074988355175
192.68056354584954
226.5957876601713
243.84539762412464
208.36865661840827
180.68489059925508
160.19906830333872
145.84835008359343
136.33928930646945
130.37905726819724
126.84265188206854
124.85386507165789
123.79200828120561
123.25268002940113
122.9915539567397
122.87084705811216
122.81770173441386
122.79605465586214
122.78974644123873
122.79377004594463
122.81131344482024
122.85563677075965
122.95738503874686
123.17938679836622
123.64191959149345
124.56100906376975
126.29929117471693
129.42224822990198
134.74264150278188
143.32630190720565
156.43009459271568
175.35491816306296
201.22611801089766
234.75058484357695
257.02463005144523
221.9216892115679
194.51063596320242
174.211887586664
159.98172474071467
150.54554091861147
144.6260191456161
141.1104828106553
139.13140543962663
138.07356696111393
137.5356512277067
137.2748902146671
137.15419978139366
137.10099287812474
137.07928942587296
137.0729419010737
137.0769257857135
137.09438122814106
137.13844877442259
137.23947827409995
137.45961181260745
137.9176446215701
138.82664868953435
140.54383948756208
143.6255858166569
148.87069759492442
157.32577268648856
170.2241788393419
188.84397150583862
214.29293924552897
247.27040595977107
275.72694721820955
241.20895645385772
214.22549016499698
194.2210805656439
180.18644074146104
170.8701106471733
165.0185352665817
161.53848433843967
159.57638527523517
158.52590992148174
157.99082536855352
157.730979537485
157.6104974060315
157.55728729456962
157.53554278924798
157.52916147279095
157.5331126833368
157.55049075687413
157.5943075029146
157.69457840095944
157.9126400118868
158.3654991075937
159.26257837104754
160.9542548231933
163.98517283614436
169.13583890435712
177.42698816858461
190.05936924972485
208.27338005934047
233.15787678940777
265.4030019251854
300.90047314759926
267.23911889832294
240.83894289815282
221.27475409801946
207.533038823212
198.39734466458341
192.64877554026336
189.22300852575378
187.28725413743425
186.24847378241347
185.71807503735525
185.45987528624738
185.3398636631561
185.28673455934575
185.26497369059598
185.25856847343107
185.26249881736254
185.27981942134974
185.32341013919182
185.42292299717153
185.63878585119616
186.08593290827397
186.96946468860907
188.6315131094129
191.60236769599888
196.6398154792786
204.73209057105882
217.03783922128358
234.7494628922501
258.8761713352783
290.1955993540539
333.37709168644
300.4464444785274
274.91889582727845
255.96791260303308
242.63413367186575
233.7494942116266
228.14437661342942
224.7945593404172
222.89596141528745
221.87389603272763
221.3503459569986
221.09465261868246
220.97542525630615
220.92248091464376
220.90073532238682
220.89431940601074
220.89824403682468
220.9155334409039
220.95893660639015
221.05772029943626
221.2713144607521
221.71231686751364
222.58086757772554
224.2094953889609
227.1115859884781
232.0179685451158
239.87816761588957
251.80143050619176
268.92165350081194
292.20763264662656
321.956415243868
