# vtk DataFile Version 2.0
Unstructured Grid Example
ASCII
DATASET UNSTRUCTURED_GRID

POINTS 961 float
0.100000001 0.00499999989 0
0.0966666639 0.00499999989 0
0.0933333337 0.00499999989 0
0.0900000036 0.00499999989 0
0.086666666 0.00499999989 0
0.0833333358 0.00499999989 0
0.0799999982 0.00499999989 0
0.0766666681 0.00499999989 0
0.0733333305 0.00499999989 0
0.0700000003 0.00499999989 0
0.0666666701 0.00499999989 0
0.0633333325 0.00499999989 0
0.0599999987 0.00499999989 0
0.0566666685 0.00499999989 0
0.0533333346 0.00499999989 0
0.0500000007 0.00499999989 0
0.0466666669 0.00499999989 0
0.043333333 0.00499999989 0
0.0399999991 0.00499999989 0
0.0366666652 0.00499999989 0
0.0333333351 0.00499999989 0
0.0299999993 0.00499999989 0
0.0266666673 0.00499999989 0
0.0233333334 0.00499999989 0
0.0199999996 0.00499999989 0
0.0166666675 0.00499999989 0
0.0133333337 0.00499999989 0
0.00999999978 0.00499999989 0
0.00666666683 0.00499999989 0
0.00333333341 0.00499999989 0
0 0.00499999989 0
0.100000001 0.00166666671 0
0.0966666639 0.00166666671 0
0.0933333337 0.00166666671 0
0.0900000036 0.00166666671 0
0.086666666 0.00166666671 0
0.0833333358 0.00166666671 0
0.0799999982 0.00166666671 0
0.0766666681 0.00166666671 0
0.0733333305 0.00166666671 0
0.0700000003 0.00166666671 0
0.0666666701 0.00166666671 0
0.0633333325 0.00166666671 0
0.0599999987 0.00166666671 0
0.0566666685 0.00166666671 0
0.0533333346 0.00166666671 0
0.0500000007 0.00166666671 0
0.0466666669 0.00166666671 0
0.043333333 0.00166666671 0
0.0399999991 0.00166666671 0
0.0366666652 0.00166666671 0
0.0333333351 0.00166666671 0
0.0299999993 0.00166666671 0
0.0266666673 0.00166666671 0
0.0233333334 0.00166666671 0
0.0199999996 0.00166666671 0
0.0166666675 0.00166666671 0
0.0133333337 0.00166666671 0
0.00999999978 0.00166666671 0
0.00666666683 0.00166666671 0
0.00333333341 0.00166666671 0
0 0.00166666671 0
0.100000001 -0.00166666671 0
0.0966666639 -0.00166666671 0
0.0933333337 -0.00166666671 0
0.0900000036 -0.00166666671 0
0.086666666 -0.00166666671 0
0.0833333358 -0.00166666671 0
0.0799999982 -0.00166666671 0
0.0766666681 -0.00166666671 0
0.0733333305 -0.00166666671 0
0.0700000003 -0.00166666671 0
0.0666666701 -0.00166666671 0
0.0633333325 -0.00166666671 0
0.0599999987 -0.00166666671 0
0.0566666685 -0.00166666671 0
0.0533333346 -0.00166666671 0
0.0500000007 -0.00166666671 0
0.0466666669 -0.00166666671 0
0.043333333 -0.00166666671 0
0.0399999991 -0.00166666671 0
0.0366666652 -0.00166666671 0
0.0333333351 -0.00166666671 0
0.0299999993 -0.00166666671 0
0.0266666673 -0.00166666671 0
0.0233333334 -0.00166666671 0
0.0199999996 -0.00166666671 0
0.0166666675 -0.00166666671 0
0.0133333337 -0.00166666671 0
0.00999999978 -0.00166666671 0
0.00666666683 -0.00166666671 0
0.00333333341 -0.00166666671 0
0 -0.00166666671 0
0.100000001 -0.00499999989 0
0.0966666639 -0.00499999989 0
0.0933333337 -0.00499999989 0
0.0900000036 -0.00499999989 0
0.086666666 -0.00499999989 0
0.0833333358 -0.00499999989 0
0.0799999982 -0.00499999989 0
0.0766666681 -0.00499999989 0
0.0733333305 -0.00499999989 0
0.0700000003 -0.00499999989 0
0.0666666701 -0.00499999989 0
0.0633333325 -0.00499999989 0
0.0599999987 -0.00499999989 0
0.0566666685 -0.00499999989 0
0.0533333346 -0.00499999989 0
0.0500000007 -0.00499999989 0
0.0466666669 -0.00499999989 0
0.043333333 -0.00499999989 0
0.0399999991 -0.00499999989 0
0.0366666652 -0.00499999989 0
0.0333333351 -0.00499999989 0
0.0299999993 -0.00499999989 0
0.0266666673 -0.00499999989 0
0.0233333334 -0.00499999989 0
0.0199999996 -0.00499999989 0
0.0166666675 -0.00499999989 0
0.0133333337 -0.00499999989 0
0.00999999978 -0.00499999989 0
0.00666666683 -0.00499999989 0
0.00333333341 -0.00499999989 0
0 -0.00499999989 0
0.100000001 -0.00833333377 0
0.0966666639 -0.00833333377 0
0.0933333337 -0.00833333377 0
0.0900000036 -0.00833333377 0
0.086666666 -0.00833333377 0
0.0833333358 -0.00833333377 0
0.0799999982 -0.00833333377 0
0.0766666681 -0.00833333377 0
0.0733333305 -0.00833333377 0
0.0700000003 -0.00833333377 0
0.0666666701 -0.00833333377 0
0.0633333325 -0.00833333377 0
0.0599999987 -0.00833333377 0
0.0566666685 -0.00833333377 0
0.0533333346 -0.00833333377 0
0.0500000007 -0.00833333377 0
0.0466666669 -0.00833333377 0
0.043333333 -0.00833333377 0
0.0399999991 -0.00833333377 0
0.0366666652 -0.00833333377 0
0.0333333351 -0.00833333377 0
0.0299999993 -0.00833333377 0
0.0266666673 -0.00833333377 0
0.0233333334 -0.00833333377 0
0.0199999996 -0.00833333377 0
0.0166666675 -0.00833333377 0
0.0133333337 -0.00833333377 0
0.00999999978 -0.00833333377 0
0.00666666683 -0.00833333377 0
0.00333333341 -0.00833333377 0
0 -0.00833333377 0
0.100000001 -0.0116666667 0
0.0966666639 -0.0116666667 0
0.0933333337 -0.0116666667 0
0.0900000036 -0.0116666667 0
0.086666666 -0.0116666667 0
0.0833333358 -0.0116666667 0
0.0799999982 -0.0116666667 0
0.0766666681 -0.0116666667 0
0.0733333305 -0.0116666667 0
0.0700000003 -0.0116666667 0
0.0666666701 -0.0116666667 0
0.0633333325 -0.0116666667 0
0.0599999987 -0.0116666667 0
0.0566666685 -0.0116666667 0
0.0533333346 -0.0116666667 0
0.0500000007 -0.0116666667 0
0.0466666669 -0.0116666667 0
0.043333333 -0.0116666667 0
0.0399999991 -0.0116666667 0
0.0366666652 -0.0116666667 0
0.0333333351 -0.0116666667 0
0.0299999993 -0.0116666667 0
0.0266666673 -0.0116666667 0
0.0233333334 -0.0116666667 0
0.0199999996 -0.0116666667 0
0.0166666675 -0.0116666667 0
0.0133333337 -0.0116666667 0
0.00999999978 -0.0116666667 0
0.00666666683 -0.0116666667 0
0.00333333341 -0.0116666667 0
0 -0.0116666667 0
0.100000001 -0.0149999997 0
0.0966666639 -0.0149999997 0
0.0933333337 -0.0149999997 0
0.0900000036 -0.0149999997 0
0.086666666 -0.0149999997 0
0.0833333358 -0.0149999997 0
0.0799999982 -0.0149999997 0
0.0766666681 -0.0149999997 0
0.0733333305 -0.0149999997 0
0.0700000003 -0.0149999997 0
0.0666666701 -0.0149999997 0
0.0633333325 -0.0149999997 0
0.0599999987 -0.0149999997 0
0.0566666685 -0.0149999997 0
0.0533333346 -0.0149999997 0
0.0500000007 -0.0149999997 0
0.0466666669 -0.0149999997 0
0.043333333 -0.0149999997 0
0.0399999991 -0.0149999997 0
0.0366666652 -0.0149999997 0
0.0333333351 -0.0149999997 0
0.0299999993 -0.0149999997 0
0.0266666673 -0.0149999997 0
0.0233333334 -0.0149999997 0
0.0199999996 -0.0149999997 0
0.0166666675 -0.0149999997 0
0.0133333337 -0.0149999997 0
0.00999999978 -0.0149999997 0
0.00666666683 -0.0149999997 0
0.00333333341 -0.0149999997 0
0 -0.0149999997 0
0.100000001 -0.0183333326 0
0.0966666639 -0.0183333326 0
0.0933333337 -0.0183333326 0
0.0900000036 -0.0183333326 0
0.086666666 -0.0183333326 0
0.0833333358 -0.0183333326 0
0.0799999982 -0.0183333326 0
0.0766666681 -0.0183333326 0
0.0733333305 -0.0183333326 0
0.0700000003 -0.0183333326 0
0.0666666701 -0.0183333326 0
0.0633333325 -0.0183333326 0
0.0599999987 -0.0183333326 0
0.0566666685 -0.0183333326 0
0.0533333346 -0.0183333326 0
0.0500000007 -0.0183333326 0
0.0466666669 -0.0183333326 0
0.043333333 -0.0183333326 0
0.0399999991 -0.0183333326 0
0.0366666652 -0.0183333326 0
0.0333333351 -0.0183333326 0
0.0299999993 -0.0183333326 0
0.0266666673 -0.0183333326 0
0.0233333334 -0.0183333326 0
0.0199999996 -0.0183333326 0
0.0166666675 -0.0183333326 0
0.0133333337 -0.0183333326 0
0.00999999978 -0.0183333326 0
0.00666666683 -0.0183333326 0
0.00333333341 -0.0183333326 0
0 -0.0183333326 0
0.100000001 -0.0216666665 0
0.0966666639 -0.0216666665 0
0.0933333337 -0.0216666665 0
0.0900000036 -0.0216666665 0
0.086666666 -0.0216666665 0
0.0833333358 -0.0216666665 0
0.0799999982 -0.0216666665 0
0.0766666681 -0.0216666665 0
0.0733333305 -0.0216666665 0
0.0700000003 -0.0216666665 0
0.0666666701 -0.0216666665 0
0.0633333325 -0.0216666665 0
0.0599999987 -0.0216666665 0
0.0566666685 -0.0216666665 0
0.0533333346 -0.0216666665 0
0.0500000007 -0.0216666665 0
0.0466666669 -0.0216666665 0
0.043333333 -0.0216666665 0
0.0399999991 -0.0216666665 0
0.0366666652 -0.0216666665 0
0.0333333351 -0.0216666665 0
0.0299999993 -0.0216666665 0
0.0266666673 -0.0216666665 0
0.0233333334 -0.0216666665 0
0.0199999996 -0.0216666665 0
0.0166666675 -0.0216666665 0
0.0133333337 -0.0216666665 0
0.00999999978 -0.0216666665 0
0.00666666683 -0.0216666665 0
0.00333333341 -0.0216666665 0
0 -0.0216666665 0
0.100000001 -0.0250000004 0
0.0966666639 -0.0250000004 0
0.0933333337 -0.0250000004 0
0.0900000036 -0.0250000004 0
0.086666666 -0.0250000004 0
0.0833333358 -0.0250000004 0
0.0799999982 -0.0250000004 0
0.0766666681 -0.0250000004 0
0.0733333305 -0.0250000004 0
0.0700000003 -0.0250000004 0
0.0666666701 -0.0250000004 0
0.0633333325 -0.0250000004 0
0.0599999987 -0.0250000004 0
0.0566666685 -0.0250000004 0
0.0533333346 -0.0250000004 0
0.0500000007 -0.0250000004 0
0.0466666669 -0.0250000004 0
0.043333333 -0.0250000004 0
0.0399999991 -0.0250000004 0
0.0366666652 -0.0250000004 0
0.0333333351 -0.0250000004 0
0.0299999993 -0.0250000004 0
0.0266666673 -0.0250000004 0
0.0233333334 -0.0250000004 0
0.0199999996 -0.0250000004 0
0.0166666675 -0.0250000004 0
0.0133333337 -0.0250000004 0
0.00999999978 -0.0250000004 0
0.00666666683 -0.0250000004 0
0.00333333341 -0.0250000004 0
0 -0.0250000004 0
0.100000001 -0.0283333343 0
0.0966666639 -0.0283333343 0
0.0933333337 -0.0283333343 0
0.0900000036 -0.0283333343 0
0.086666666 -0.0283333343 0
0.0833333358 -0.0283333343 0
0.0799999982 -0.0283333343 0
0.0766666681 -0.0283333343 0
0.0733333305 -0.0283333343 0
0.0700000003 -0.0283333343 0
0.0666666701 -0.0283333343 0
0.0633333325 -0.0283333343 0
0.0599999987 -0.0283333343 0
0.0566666685 -0.0283333343 0
0.0533333346 -0.0283333343 0
0.0500000007 -0.0283333343 0
0.0466666669 -0.0283333343 0
0.043333333 -0.0283333343 0
0.0399999991 -0.0283333343 0
0.0366666652 -0.0283333343 0
0.0333333351 -0.0283333343 0
0.0299999993 -0.0283333343 0
0.0266666673 -0.0283333343 0
0.0233333334 -0.0283333343 0
0.0199999996 -0.0283333343 0
0.0166666675 -0.0283333343 0
0.0133333337 -0.0283333343 0
0.00999999978 -0.0283333343 0
0.00666666683 -0.0283333343 0
0.00333333341 -0.0283333343 0
0 -0.0283333343 0
0.100000001 -0.0316666663 0
[...]
POINT_DATA 961
SCALARS Temp float 1
LOOKUP_TABLE default
341.08473059938194
309.95253192885326
285.1987164471528
266.39020459323933
252.75373243967246
243.328145507644
237.11879078330875
233.21943621805835
230.88377670035166
229.54812203363704
228.81807901689726
228.43625863811357
228.2451657369561
228.15423842067025
228.1148942597343
228.10402685629518
228.1148942299919
228.154238340927
228.24516570409767
228.43625856687171
228.81807765031988
229.54812103781353
230.88377573256417
233.21943092138022
237.11878703043027
243.3281260689217
252.7537143072215
266.3901590787014
285.19867123248093
309.9525077127165
341.0846592971737
309.9526200219218
277.6918116358754
252.04024929582988
232.54925526867711
218.41764522436975
208.64954820020438
202.21435256245437
198.17303158730286
195.75224275992417
194.3678493441259
193.61113364343947
193.2153452200515
193.01725246877757
192.9229901776271
192.88220136964722
192.87093465833976
192.88220133861404
192.9229900944046
193.0172524333934
193.21534514319094
193.61113222026506
194.3678482977359
195.75224172721767
198.17302603725884
202.21434855160174
208.64952781077614
218.4176259368419
232.54920697451186
252.0402001151492
277.6917692505538
309.9525113359735
285.19880454900334
252.04025614874206
225.67384221034445
205.63865035514226
191.11155586685024
181.06933157049534
174.45296665471292
170.2974668775301
167.80801911991728
166.38419864638038
165.60583803185776
165.19867747410748
164.99486687210475
164.89787160287617
164.85589559716038
164.84430016666383
164.85589556465555
164.89787151565903
164.99486683194434
165.1986773865237
165.60583654921965
166.3841975304021
167.8080179756077
170.29746100416702
174.45296220088665
181.06930995874018
191.11153474538372
205.63859807702053
225.67378528521704
252.04020025896824
285.1986745948232
266.3902996766158
232.5492707708455
205.63866041402827
185.18843833874354
170.35905612666394
160.1067502361594
153.35112411500575
149.10756220120606
146.56496636824545
145.11050658957646
144.31525638232418
143.89918447214865
143.69087404164188
143.59171900262547
143.54880140278564
143.53694467335356
143.54880136868852
143.59171891108318
143.69087399499205
143.89918437007086
144.31525484010302
145.11050539212346
146.56496508229927
149.1075559704818
153.35111911710996
160.10672731602645
170.35903296366428
185.1883819696303
205.6385971151299
232.54920611651121
266.3901593946474
252.75386352291875
218.41769619770665
191.111602253331
170.3590931699105
155.3089332517524
144.90269259482224
138.04464379717754
133.7360456854754
131.1540212123095
129.6767215751012
128.86881736787592
128.44603396867504
128.23431659594695
128.1335179373989
128.08988058201214
128.07782356681471
128.08988054626806
128.13351784141722
128.23431654179214
128.44603385009736
128.8688157693317
129.67672029349606
131.15401977598563
133.73603910679975
138.04463825197678
144.90266847712243
155.30890825883128
170.35903354292282
191.1115344808442
218.41762630372494
252.75371714960323
243.3282859316642
208.64960405211693
181.0693824962172
160.10679190058988
144.90269699377802
134.3887126187202
127.45865830308406
123.10411327487003
120.49408394343287
119.00046908236644
118.18347139577477
117.75583499117948
117.54163860792471
117.43963670567406
117.39546966311147
117.38326477383093
117.39546962566774
117.43963660521204
117.54163854571833
117.75583485546868
118.18346974657713
119.0004677215274
120.49408236573791
123.10410639109402
127.45865227956338
134.38868753248985
144.9026705912373
160.10672996581428
181.06931181645487
208.64953098634922
243.3281359193702
237.11894571232634
202.21442317005338
174.4530331649728
153.35118199917895
138.04466460915333
127.45867493413083
120.48025571500267
116.0946748209833
113.46561267334809
111.96083665713235
111.13757515124846
110.70657195560705
110.49064328916602
110.38779468032615
110.34325264468879
110.33094267747616
110.34325260529657
110.3877945749563
110.49064321797182
110.70657180194908
111.13757345654604
111.96083522418614
113.4656109705212
116.09466768660022
120.48024930835115
127.45864912768931
138.04463720881662
153.3511185306615
174.45296065435252
202.21434819689443
237.11879351917423
233.21958243038543
198.1730977704476
170.29753054736116
149.10761779000492
133.7360642697265
123.10412773965056
116.09467259279015
111.68905046659238
109.0476134999341
107.53552724920877
106.70813129659903
106.27488798051776
106.05779733453035
105.95437628712888
105.90957900145416
105.8971972108742
105.90957895917299
105.9543761749017
106.05779725092601
106.27488780428678
106.70812955492417
107.53552574318459
109.04761167796995
111.68904311810994
116.0946658735933
123.10410139756128
133.7360361633586
149.10755329991065
170.2974568653251
198.17302161233962
233.21942889384096
230.8839137387669
195.7523045112788
167.80807977256958
146.5650193241062
131.15403720723083
120.4940958390845
113.46560781411317
109.0476108461989
106.39847535782965
104.88180461968498
104.05179373008664
103.61712106060175
103.39928233365211
103.29548954313668
103.25052525510493
103.23809625620272
103.25052520711246
103.29548941786649
103.39928222676986
103.61712084500554
104.05179192003654
104.8818030106305
106.39847338082436
109.04760325634744
113.46560076371347
120.4940690022219
131.15400848248535
146.56495401490787
167.80800518165628
195.7522274427922
230.8837592048005
229.54823980370557
194.36789101578916
166.38423812380242
145.11053784214644
129.67671543164994
119.00045851631481
111.96080904595297
107.53550164141085
104.88178153322023
103.36235692954705
102.53076083142413
102.09521338339995
101.87691237182497
101.7728876920561
101.7278183842703
101.71535954863977
101.72781832303991
101.7728875368554
101.87691221151431
102.09521307956946
102.53075888009411
103.36235511023678
104.88177925291608
107.535493622026
111.96080142846095
119.00043092850929
129.67668580095045
145.1104714417595
166.38416234310114
194.36781273747022
229.54808402152514
228.81815449447046
193.6111218626894
165.6058210216882
144.31522942353823
128.86875171702687
118.18340031446236
111.13748621785759
106.70804376539513
104.05170829106564
102.53069823805788
101.69818059241172
101.2621194175537
101.0435441040505
100.93938044296472
100.89424764494763
100.8817706692712
100.89424755172408
100.93938021515005
101.04354381291526
101.2621188969246
101.69817829883438
102.53069590620883
104.05170527426286
106.70803472742523
111.13747726152461
118.18337102509346
128.86872004444027
144.31516065796225
165.60574266236083
193.61104092112103
228.81799605480623
228.43619214848684
193.2151855998627
165.19850786391524
143.8990008692212
128.44580829236418
117.75560115367269
110.70631811713791
106.27463392297065
103.6168679171958
102.0949822948649
101.26195049260843
100.8255996141989
100.60686791587447
100.50262417082142
100.45745444621896
100.44496684423048
100.45745427646953
100.50262376783719
100.60686730511922
100.82559855730486
101.26194734549911
102.09497866834137
103.61686302193749
106.27462227657928
110.70630570497413
117.75556748222692
128.4457713310189
143.89892600476315
165.19842282548646
193.21509771143957
228.43602683258044
228.24471108104706
193.01669962042868
164.99429287306037
143.69027568740844
128.2336673467135
117.54097407162658
110.48995318728402
106.05710282108448
103.39858568803183
101.87623566944171
101.04292820795064
100.60642024093339
100.38760275388914
100.28331457110276
100.23812413932033
100.22563050330992
100.23812379167977
100.28331375675819
100.38760138185978
100.60641788719634
101.04292296711283
101.87622881985466
103.39857605417453
106.05708452177502
110.48993186544249
117.54092901827107
128.233616540124
143.69018478670168
164.99419018774626
193.0165933070525
228.24452754254088
228.1528185375715
192.92143619894478
164.8962657713811
143.59006176255025
128.13178740720485
117.43787293215973
110.38599139718163
105.95255813290075
103.29366169491298
101.77107453937482
100.9376246284626
100.50103445793151
100.28217149014033
100.17785943446205
100.13265771866352
100.12016068418464
100.13265697182437
100.1778576867105
100.28216836440252
100.50102906702968
100.93761440375901
101.77105989565426
103.29364043399978
105.95252329531206
110.38594766443212
117.43779896664107
128.1317011294062
143.58992951273103
164.89611735596995
192.92128198455782
228.1525875910555
228.11109083785965
192.87817375845208
164.85173535889354
143.54452274818775
128.08547365208292
117.3909855825108
110.33869510398128
105.90498126523384
103.24589964886538
101.72319495097166
100.88967329177298
100.45304102122059
100.23415435393035
100.12982962130077
100.08462174905763
100.07212265808253
100.08462014032754
100.12982583433049
100.23414733511392
100.4530287692902
100.88965161077583
101.72316208939878
103.2458507856534
105.90490660784447
110.33859672586692
117.39084034809902
128.085299131805
143.54428688842248
164.85147174425035
192.87789847730693
228.11073994452966
228.09452068251832
192.86097076255754
164.83401396479235
143.52638087927838
128.0670007891231
117.37226065597416
110.31978488536893
105.88593977862057
103.2267686534397
101.70400526798875
100.87044663565638
100.433791997966
100.21489235343026
100.11056043369959
100.0653488411752
100.05284813094356
100.06534544657708
100.11055236835236
100.21487702832617
100.43376483614068
100.87039959724419
101.70393136495044
103.22665657158755
105.88577253030125
110.3195577097522
117.37194545221233
128.0666137256176
143.5258934907129
164.83346907129499
192.8603988263875
228.09387552612372
228.0921174953249
192.8584683679029
164.8314075081569
143.52366927245066
128.06418814935918
117.3693563053411
110.31680209861776
105.88289382148248
103.22367475707841
101.70087704601639
100.86729518214617
100.43062564741327
100.21171691699757
100.10737967698364
100.0621650036865
100.04966235719165
100.06215806627628
100.10736301240345
100.21168460096297
100.43056739538663
100.8671942380315
101.70071425307012
103.22342332433477
105.88251914223514
110.31628213524378
117.3686497548241
128.06330642014493
143.52259143389844
164.83019816025137
192.85719293575522
228.09077359207217
228.1017520872075
192.86845064235393
164.84161134649514
143.53399596591265
128.07456222875507
117.37972737058038
110.32714252305189
105.8931935624225
103.23393510327304
101.71110497388887
100.87749925204416
100.44081361524991
100.22189473030576
100.11755133284666
100.07233278186388
100.05982707460363
100.07231913175602
100.1175181517189
100.22182917907786
100.44069332161162
100.87728854082721
101.71075757551854
103.23338879523997
105.89237223011348
110.32598206262217
117.37815271346271
128.07257018663532
143.53158022713825
164.83888591890104
192.86556316305206
228.09880467136773
228.12868986324477
192.89631851654008
164.8701250604416
143.56290190062103
128.1036635102479
117.40888914290292
110.35628650144406
105.92228497779125
103.2629673387659
101.74008602952233
100.90644212946951
100.4697308173224
100.25079593021398
100.14644293211164
100.10121825358185
100.08870733591212
100.1011924865174
100.14637951635768
100.25066838646477
100.46949238332836
100.90601794471128
101.73937207631995
103.26182369911318
105.9205416806957
110.35378096527029
117.40546329335146
128.09927265835952
143.5575650570094
164.86406370217074
192.88986688601642
228.12219133141113
228.18714413157696
192.95678322420062
164.93196433741159
143.6255666560512
128.1667300463453
117.47207378760977
110.41943022212638
105.9853215360223
103.32588789361563
101.80290954646972
100.96919555928335
100.53243860676486
100.31347617369494
100.20910714149467
100.16387241327854
100.15135279363062
100.16382586490195
100.20899112598283
100.31323869679089
100.53198618430828
100.96837615963071
101.8015019762981
103.32358955550743
105.9817593023569
110.41422028584951
117.4648620911023
128.15736102673316
143.6140951775178
164.91883509944344
192.94273877094025
228.17306633018208
228.30499416404172
193.07864049376545
165.05652279065114
143.7516905713471
128.2935668586516
117.59907331687491
110.54630234465874
106.11196095286051
103.4522963584779
101.92913504652022
101.09529464223498
100.65845858652992
100.43945016476063
100.33505527885308
100.2898047331702
100.27727128348886
100.28972441824527
100.33485256241183
100.43902796103595
100.65763877422654
101.09378127407128
101.9264813467276
103.44787571405749
106.10498061201322
110.53590267496662
117.58445620306148
128.27429615653224
143.72784880601137
165.02899482724456
193.04902899578303
228.27534299236584
228.53143421433882
193.3127694010189
165.29566798931262
143.9936135630737
128.5366371639774
117.84228935022294
110.78917919576966
106.35435941253726
103.69426037108845
102.17077474447449
101.33672094475487
100.89975704571482
100.68067722336464
100.57624362498984
100.5309699000496
100.51841578455954
100.53083776882929
100.57590596333938
100.67996196417141
100.89834172543844
101.33405668731254
102.16600475580258
103.68614701524184
106.34128615243611
110.76930928870998
117.81386018170187
128.4985363934072
143.94586388760808
165.23997048902433
193.252469074156
228.47100069025677
228.9478444186368
193.74313669585925
165.73486503386258
144.43741164183953
128.98208011688146
118.28767766686359
111.23378660676626
106.79805965736432
104.13720679763223
102.61319345984857
101.77881063953302
101.34165886929132
101.12247864077956
101.01799263206756
100.97268796347355
100.96010506454547
100.97248100426292
101.0174573973052
101.12132627527507
101.33933633092164
101.77435248249553
102.60504351939278
104.12304306246905
106.77473683615585
111.1975598483682
118.23477956661404
128.90984034439353
144.34545774527956
165.62629609815204
193.62468718482006
228.82889235399068
229.680261126442
194.49976049454506
166.5061275927889
145.21567512825018
129.7622998260594
119.06722187163565
112.01174232022007
107.57445400383143
104.91242117196283
103.38763993662076
102.55280727445445
102.1154127456154
101.89610939994364
101.79156181243891
101.74622071624037
101.73360084231047
101.74591249888682
101.79075570112025
101.89434704330019
102.11179809960642
102.54573617752547
103.37444499635225
104.888983807018
107.53496774930845
111.94894097214117
118.97336267144989
129.63127238678123
145.04569843158777
166.3024238406147
194.27538227446607
229.4542493457244
230.91167963019151
195.77108325594034
167.8000433689039
146.51900843127981
131.06708332693705
120.3699168057351
113.31158873066722
108.8719307849103
106.20829706127198
104.68256433243215
103.84721789206115
103.40956704548212
103.1901434201242
103.08553917448248
103.04016297350844
103.02750001784831
103.03972704813555
103.08438725852763
103.18758939001052
103.40424301071505
103.83661511009089
104.6623854288151
106.17167320585018
108.80876013880601
113.20852624595281
120.21175245340645
130.84042276093513
146.21793617821973
167.43228745961719
195.36093442291542
230.49679589870573
232.8901673806403
197.81174278908014
169.87227021170207
148.60126353130744
133.1481724242503
122.44634837055894
115.38367050958794
110.94105846951327
108.27571622906854
106.74910496857154
105.91335193633175
105.47553242908594
105.25604629819568
105.15141809120584
105.10602111190107
105.09331405987261
105.10543618970166
105.1498582776444
105.25254438744422
105.46812560354239
105.89835968879079
106.72004715476369
108.22188443022843
110.84602152224345
115.22445390396084
122.19463204918272
132.7758879338756
148.0914771819292
169.2334832407534
197.08698240276988
232.1526476020929
235.9293052803571
200.94133926714744
173.03890617901445
151.77192108804428
136.3110208628108
125.6010641301052
118.533454761948
114.08844418282926
111.42217339812565
109.89533063086907
109.0596118476554
108.62189096500916
108.40249104122542
108.29791521568475
108.25253168139251
108.23978797182589
108.25178777700143
108.29591597566811
108.39795452713216
108.61217542589961
109.03966696207168
109.8560466633202
111.34803469651061
113.95467738010623
118.30344018400005
125.22581668041023
135.73463508902586
150.95049326252067
171.97133845814622
199.6993357995211
234.65350903208906
240.4007002469701
205.53360444750064
177.6533776544342
156.3688204232541
140.8872244317417
130.16874183414504
123.09918768908375
118.65500365009633
115.99025567557464
114.46478280612355
113.6300491230454
113.19295236015641
112.97391202138962
112.86952258382202
112.8242124300039
112.811450808667
112.82331641459596
112.8670995165371
112.96836655394675
113.18095569085608
113.60513601719146
114.41505632735564
115.89493106366322
118.47973746328572
122.7906535582188
129.64994302294133
140.05797505903382
155.12029544167092
175.941738476913
203.4551917848274
238.236555175113
246.75088181970534
211.9868404109983
184.06632179246202
162.69259680120882
147.19139972640662
136.47497507198992
129.4139630772713
124.97819675759433
122.31982421886552
120.79858282621068
119.96641988440477
119.53078021722355
119.31251622857762
119.20851175765443
119.16336320993834
119.15061505298239
119.1623418621499
119.2057372582167
119.3061267068101
119.51685466511178
119.93725341277178
120.73978455529544
122.2057644170382
124.76539800535056
129.03227033669026
135.81680776124432
146.10064408774295
160.9606377623371
181.43959655065996
208.58268452351723
243.05773370146923
255.44256759924977
220.87410404153403
192.3777993497126
170.95679313822026
155.4726529635137
144.78976981490348
137.75813616707592
133.3436524500335
130.69916204736177
129.18632676090022
128.35895482507092
127.92590256270478
127.70896674018339
127.60560584675771
127.56073320447175
127.5480411462048
127.55963197343773
127.60260714459925
127.70203459079768
127.91072588651541
128.3269998350716
129.12151049312067
130.5724916913215
133.10512987370802
137.32509636044796
144.03044141419542
154.18287052237164
168.8205102138626
188.91994338302896
215.03330976344597
249.16359402286812
270.42591516109746
230.91900420542638
202.58480756130473
181.2528911950865
165.88139061122706
155.28439621056947
148.31243807375063
143.9365029068873
141.3154744924462
139.8162198120274
138.99633122038034
138.56720120312033
138.35224190952354
138.2498305970407
138.20536180823166
138.192777187451
138.20424050335728
138.24677086854018
138.34517089397718
138.55168985533186
138.96361278051566
139.74971697700738
141.18519665334878
143.69038773528496
147.8637579353199
154.4930326906182
164.52489144804713
178.97586170302495
198.74902540011496
224.47900571183533
252.8144779652704
