# vtk DataFile Version 2.0
Unstructured Grid Example
ASCII
DATASET UNSTRUCTURED_GRID

POINTS 961 float
0.100000001 0.00499999989 0
0.0966666639 0.00499999989 0
0.0933333337 0.00499999989 0
0.0900000036 0.00499999989 0
0.086666666 0.00499999989 0
0.0833333358 0.00499999989 0
0.0799999982 0.00499999989 0
0.0766666681 0.00499999989 0
0.0733333305 0.00499999989 0
0.0700000003 0.00499999989 0
0.0666666701 0.00499999989 0
0.0633333325 0.00499999989 0
0.0599999987 0.00499999989 0
0.0566666685 0.00499999989 0
0.0533333346 0.00499999989 0
0.0500000007 0.00499999989 0
0.0466666669 0.00499999989 0
0.043333333 0.00499999989 0
0.0399999991 0.00499999989 0
0.0366666652 0.00499999989 0
0.0333333351 0.00499999989 0
0.0299999993 0.00499999989 0
0.0266666673 0.00499999989 0
0.0233333334 0.00499999989 0
0.0199999996 0.00499999989 0
0.0166666675 0.00499999989 0
0.0133333337 0.00499999989 0
0.00999999978 0.00499999989 0
0.00666666683 0.00499999989 0
0.00333333341 0.00499999989 0
0 0.00499999989 0
0.100000001 0.00166666671 0
0.0966666639 0.00166666671 0
0.0933333337 0.00166666671 0
0.0900000036 0.00166666671 0
0.086666666 0.00166666671 0
0.0833333358 0.00166666671 0
0.0799999982 0.00166666671 0
0.0766666681 0.00166666671 0
0.0733333305 0.00166666671 0
0.0700000003 0.00166666671 0
0.0666666701 0.00166666671 0
0.0633333325 0.00166666671 0
0.0599999987 0.00166666671 0
0.0566666685 0.00166666671 0
0.0533333346 0.00166666671 0
0.0500000007 0.00166666671 0
0.0466666669 0.00166666671 0
0.043333333 0.00166666671 0
0.0399999991 0.00166666671 0
0.0366666652 0.00166666671 0
0.0333333351 0.00166666671 0
0.0299999993 0.00166666671 0
0.0266666673 0.00166666671 0
0.0233333334 0.00166666671 0
0.0199999996 0.00166666671 0
0.0166666675 0.00166666671 0
0.0133333337 0.00166666671 0
0.00999999978 0.00166666671 0
0.00666666683 0.00166666671 0
0.00333333341 0.00166666671 0
0 0.00166666671 0
0.100000001 -0.00166666671 0
0.0966666639 -0.00166666671 0
0.0933333337 -0.00166666671 0
0.0900000036 -0.00166666671 0
0.086666666 -0.00166666671 0
0.0833333358 -0.00166666671 0
0.0799999982 -0.00166666671 0
0.0766666681 -0.00166666671 0
0.0733333305 -0.00166666671 0
0.0700000003 -0.00166666671 0
0.0666666701 -0.00166666671 0
0.0633333325 -0.00166666671 0
0.0599999987 -0.00166666671 0
0.0566666685 -0.00166666671 0
0.0533333346 -0.00166666671 0
0.0500000007 -0.00166666671 0
0.0466666669 -0.00166666671 0
0.043333333 -0.00166666671 0
0.0399999991 -0.00166666671 0
0.0366666652 -0.00166666671 0
0.0333333351 -0.00166666671 0
0.0299999993 -0.00166666671 0
0.0266666673 -0.00166666671 0
0.0233333334 -0.00166666671 0
0.0199999996 -0.00166666671 0
0.0166666675 -0.00166666671 0
0.0133333337 -0.00166666671 0
0.00999999978 -0.00166666671 0
0.00666666683 -0.00166666671 0
0.00333333341 -0.00166666671 0
0 -0.00166666671 0
0.100000001 -0.00499999989 0
0.0966666639 -0.00499999989 0
0.0933333337 -0.00499999989 0
0.0900000036 -0.00499999989 0
0.086666666 -0.00499999989 0
0.0833333358 -0.00499999989 0
0.0799999982 -0.00499999989 0
0.0766666681 -0.00499999989 0
0.0733333305 -0.00499999989 0
0.0700000003 -0.00499999989 0
0.0666666701 -0.00499999989 0
0.0633333325 -0.00499999989 0
0.0599999987 -0.00499999989 0
0.0566666685 -0.00499999989 0
0.0533333346 -0.00499999989 0
0.0500000007 -0.00499999989 0
0.0466666669 -0.00499999989 0
0.043333333 -0.00499999989 0
0.0399999991 -0.00499999989 0
0.0366666652 -0.00499999989 0
0.0333333351 -0.00499999989 0
0.0299999993 -0.00499999989 0
0.0266666673 -0.00499999989 0
0.0233333334 -0.00499999989 0
0.0199999996 -0.00499999989 0
0.0166666675 -0.00499999989 0
0.0133333337 -0.00499999989 0
0.00999999978 -0.00499999989 0
0.00666666683 -0.00499999989 0
0.00333333341 -0.00499999989 0
0 -0.00499999989 0
0.100000001 -0.00833333377 0
0.0966666639 -0.00833333377 0
0.0933333337 -0.00833333377 0
0.0900000036 -0.00833333377 0
0.086666666 -0.00833333377 0
0.0833333358 -0.00833333377 0
0.0799999982 -0.00833333377 0
0.0766666681 -0.00833333377 0
0.0733333305 -0.00833333377 0
0.0700000003 -0.00833333377 0
0.0666666701 -0.00833333377 0
0.0633333325 -0.00833333377 0
0.0599999987 -0.00833333377 0
0.0566666685 -0.00833333377 0
0.0533333346 -0.00833333377 0
0.0500000007 -0.00833333377 0
0.0466666669 -0.00833333377 0
0.043333333 -0.00833333377 0
0.0399999991 -0.00833333377 0
0.0366666652 -0.00833333377 0
0.0333333351 -0.00833333377 0
0.0299999993 -0.00833333377 0
0.0266666673 -0.00833333377 0
0.0233333334 -0.00833333377 0
0.0199999996 -0.00833333377 0
0.0166666675 -0.00833333377 0
0.0133333337 -0.00833333377 0
0.00999999978 -0.00833333377 0
0.00666666683 -0.00833333377 0
0.00333333341 -0.00833333377 0
0 -0.00833333377 0
0.100000001 -0.0116666667 0
0.0966666639 -0.0116666667 0
0.0933333337 -0.0116666667 0
0.0900000036 -0.0116666667 0
0.086666666 -0.0116666667 0
0.0833333358 -0.0116666667 0
0.0799999982 -0.0116666667 0
0.0766666681 -0.0116666667 0
0.0733333305 -0.0116666667 0
0.0700000003 -0.0116666667 0
0.0666666701 -0.0116666667 0
0.0633333325 -0.0116666667 0
0.0599999987 -0.0116666667 0
0.0566666685 -0.0116666667 0
0.0533333346 -0.0116666667 0
0.0500000007 -0.0116666667 0
0.0466666669 -0.0116666667 0
0.043333333 -0.0116666667 0
0.0399999991 -0.0116666667 0
0.0366666652 -0.0116666667 0
0.0333333351 -0.0116666667 0
0.0299999993 -0.0116666667 0
0.0266666673 -0.0116666667 0
0.0233333334 -0.0116666667 0
0.0199999996 -0.0116666667 0
0.0166666675 -0.0116666667 0
0.0133333337 -0.0116666667 0
0.00999999978 -0.0116666667 0
0.00666666683 -0.0116666667 0
0.00333333341 -0.0116666667 0
0 -0.0116666667 0
0.100000001 -0.0149999997 0
0.0966666639 -0.0149999997 0
0.0933333337 -0.0149999997 0
0.0900000036 -0.0149999997 0
0.086666666 -0.0149999997 0
0.0833333358 -0.0149999997 0
0.0799999982 -0.0149999997 0
0.0766666681 -0.0149999997 0
0.0733333305 -0.0149999997 0
0.0700000003 -0.0149999997 0
0.0666666701 -0.0149999997 0
0.0633333325 -0.0149999997 0
0.0599999987 -0.0149999997 0
0.0566666685 -0.0149999997 0
0.0533333346 -0.0149999997 0
0.0500000007 -0.0149999997 0
0.0466666669 -0.0149999997 0
0.043333333 -0.0149999997 0
0.0399999991 -0.0149999997 0
0.0366666652 -0.0149999997 0
0.0333333351 -0.0149999997 0
0.0299999993 -0.0149999997 0
0.0266666673 -0.0149999997 0
0.0233333334 -0.0149999997 0
0.0199999996 -0.0149999997 0
0.0166666675 -0.0149999997 0
0.0133333337 -0.0149999997 0
0.00999999978 -0.0149999997 0
0.00666666683 -0.0149999997 0
0.00333333341 -0.0149999997 0
0 -0.0149999997 0
0.100000001 -0.0183333326 0
0.0966666639 -0.0183333326 0
0.0933333337 -0.0183333326 0
0.0900000036 -0.0183333326 0
0.086666666 -0.0183333326 0
0.0833333358 -0.0183333326 0
0.0799999982 -0.0183333326 0
0.0766666681 -0.0183333326 0
0.0733333305 -0.0183333326 0
0.0700000003 -0.0183333326 0
0.0666666701 -0.0183333326 0
0.0633333325 -0.0183333326 0
0.0599999987 -0.0183333326 0
0.0566666685 -0.0183333326 0
0.0533333346 -0.0183333326 0
0.0500000007 -0.0183333326 0
0.0466666669 -0.0183333326 0
0.043333333 -0.0183333326 0
0.0399999991 -0.0183333326 0
0.0366666652 -0.0183333326 0
0.0333333351 -0.0183333326 0
0.0299999993 -0.0183333326 0
0.0266666673 -0.0183333326 0
0.0233333334 -0.0183333326 0
0.0199999996 -0.0183333326 0
0.0166666675 -0.0183333326 0
0.0133333337 -0.0183333326 0
0.00999999978 -0.0183333326 0
0.00666666683 -0.0183333326 0
0.00333333341 -0.0183333326 0
0 -0.0183333326 0
0.100000001 -0.0216666665 0
0.0966666639 -0.0216666665 0
0.0933333337 -0.0216666665 0
0.0900000036 -0.0216666665 0
0.086666666 -0.0216666665 0
0.0833333358 -0.0216666665 0
0.0799999982 -0.0216666665 0
0.0766666681 -0.0216666665 0
0.0733333305 -0.0216666665 0
0.0700000003 -0.0216666665 0
0.0666666701 -0.0216666665 0
0.0633333325 -0.0216666665 0
0.0599999987 -0.0216666665 0
0.0566666685 -0.0216666665 0
0.0533333346 -0.0216666665 0
0.0500000007 -0.0216666665 0
0.0466666669 -0.0216666665 0
0.043333333 -0.0216666665 0
0.0399999991 -0.0216666665 0
0.0366666652 -0.0216666665 0
0.0333333351 -0.0216666665 0
0.0299999993 -0.0216666665 0
0.0266666673 -0.0216666665 0
0.0233333334 -0.0216666665 0
0.0199999996 -0.0216666665 0
0.0166666675 -0.0216666665 0
0.0133333337 -0.0216666665 0
0.00999999978 -0.0216666665 0
0.00666666683 -0.0216666665 0
0.00333333341 -0.0216666665 0
0 -0.0216666665 0
0.100000001 -0.0250000004 0
0.0966666639 -0.0250000004 0
0.0933333337 -0.0250000004 0
0.0900000036 -0.0250000004 0
0.086666666 -0.0250000004 0
0.0833333358 -0.0250000004 0
0.0799999982 -0.0250000004 0
0.0766666681 -0.0250000004 0
0.0733333305 -0.0250000004 0
0.0700000003 -0.0250000004 0
0.0666666701 -0.0250000004 0
0.0633333325 -0.0250000004 0
0.0599999987 -0.0250000004 0
0.0566666685 -0.0250000004 0
0.0533333346 -0.0250000004 0
0.0500000007 -0.0250000004 0
0.0466666669 -0.0250000004 0
0.043333333 -0.0250000004 0
0.0399999991 -0.0250000004 0
0.0366666652 -0.0250000004 0
0.0333333351 -0.0250000004 0
0.0299999993 -0.0250000004 0
0.0266666673 -0.0250000004 0
0.0233333334 -0.0250000004 0
0.0199999996 -0.0250000004 0
0.0166666675 -0.0250000004 0
0.0133333337 -0.0250000004 0
0.00999999978 -0.0250000004 0
0.00666666683 -0.0250000004 0
0.00333333341 -0.0250000004 0
0 -0.0250000004 0
0.100000001 -0.0283333343 0
0.0966666639 -0.0283333343 0
0.0933333337 -0.0283333343 0
0.0900000036 -0.0283333343 0
0.086666666 -0.0283333343 0
0.0833333358 -0.0283333343 0
0.0799999982 -0.0283333343 0
0.0766666681 -0.0283333343 0
0.0733333305 -0.0283333343 0
0.0700000003 -0.0283333343 0
0.0666666701 -0.0283333343 0
0.0633333325 -0.0283333343 0
0.0599999987 -0.0283333343 0
0.0566666685 -0.0283333343 0
0.0533333346 -0.0283333343 0
0.0500000007 -0.0283333343 0
0.0466666669 -0.0283333343 0
0.043333333 -0.0283333343 0
0.0399999991 -0.0283333343 0
0.0366666652 -0.0283333343 0
0.0333333351 -0.0283333343 0
0.0299999993 -0.0283333343 0
0.0266666673 -0.0283333343 0
0.0233333334 -0.0283333343 0
0.0199999996 -0.0283333343 0
0.0166666675 -0.0283333343 0
0.0133333337 -0.0283333343 0
0.00999999978 -0.0283333343 0
0.00666666683 -0.0283333343 0
0.00333333341 -0.0283333343 0
0 -0.0283333343 0
0.100000001 -0.0316666663 0
[...]
POINT_DATA 961
SCALARS Temp float 1
LOOKUP_TABLE default
342.1231166769105
310.32405822527056
284.79294937421605
265.3814054317681
251.31539184324225
241.6103118202334
235.23496881151556
231.24653806169246
228.8686010637671
227.5160924020928
226.78128535040696
226.39946597706142
226.20962846754279
226.11975671310927
226.08068853597163
226.0688720382728
226.076729881222
226.10926315628853
226.1862594882734
226.35049088828293
226.68311158507785
227.3275771326386
228.52215670629968
230.63794533591044
234.21415767076573
239.97672136212256
248.82268739704804
261.7555557767164
279.7703021659505
303.6954206889113
334.29353709290626
312.14174863045633
278.8223664519414
252.3566168765068
232.20530859620357
217.58302013884122
207.47529790453422
200.82118079181905
196.6484237998447
194.1542056463736
192.73172998703572
191.95675554965902
191.55292320558226
191.35157431618057
191.25599444231923
191.2143466979114
191.20173215742926
191.21012761387354
191.2448339181804
191.32678891512955
191.50113620723374
191.85326822828844
192.53363498531004
193.79129108868278
196.01284023548124
199.75821263393905
205.77886697060856
215.00057474340832
228.45588783681814
247.16225753534002
271.97569791048994
303.2781082842382
288.02871253447404
253.83896872046566
226.60287837279031
205.87251509234898
190.81439390948404
180.39111583764253
173.51788237388803
169.19966762249197
166.61326225162907
165.13503610042585
164.32788657971884
163.90632675400045
163.69565772317222
163.59543292019214
163.55167862417807
163.53841496616496
163.54726401731577
163.58377879425333
163.66984509272606
163.85255282390975
164.22076081726382
164.93062626846805
166.2399808791215
168.54802679081095
172.43148825232478
178.66245462908702
188.189743755934
202.06834794320528
221.33395850992562
246.82424079485023
279.029008309522
269.6301462236635
234.81058313109438
207.04498560864195
185.88919952422143
170.50969630092322
159.85233656799807
152.81568107433694
148.38833447393796
145.73232526270755
144.21172690325085
143.37995724287578
142.94473990878913
142.7268422286472
142.62299231209818
142.57758670814036
142.56381730130195
142.57303751997995
142.61100621646779
142.70036281254136
142.88973637430786
143.27071747289312
144.00394824607932
145.3541429341798
147.73037025649478
151.7225026189092
158.11879767669654
167.8861765422421
182.09776973858035
201.80348166446475
227.86418210053105
260.7855691820493
256.21630898547613
220.97454399105231
192.85290058158068
171.40940312567338
155.8078606458696
144.9870827530213
137.8352840583023
133.33037988945705
130.62447982142965
129.07324848423917
128.22352678816983
127.77826627601212
127.55500892483913
127.44845071723145
127.40180501592415
127.38765911379694
127.39717370364842
127.43627055641053
127.52816653887045
127.72266276183167
128.113422031086
128.8644793192342
130.24574636785562
132.67374183193704
136.74828667397733
143.26994606822004
153.2196582077165
167.68510936672484
187.7314165515823
214.23350611586065
247.7079448333091
246.8796577381479
211.37203489377424
183.02575482022743
161.39907148977252
145.65433708135234
134.7265633345194
127.49841375025842
122.94147333936273
120.20172254258719
118.62947932936497
117.76731225146953
117.31501672631333
117.08796743812839
116.97947571502225
116.93193938661797
116.91752642947105
116.92726719695581
116.96720843940429
117.0609932626911
117.25928170370335
117.65724898766611
118.42139972889133
119.82542400468223
122.29126085743711
126.4259975943948
133.03927110137982
143.12253230921777
157.77487085387833
178.07275998914065
204.90104962698908
238.78244835367994
240.67580430350745
205.01260686055417
176.53406495762982
154.7984521478838
138.96738986223593
127.97409609748142
120.69844290461343
116.10863971457249
113.347206264222
111.76132090607038
110.89096785958351
110.43398691916813
110.20438200461739
110.0945732540459
110.04642621352096
110.03183331654735
110.04174238882237
110.08229304954044
110.17743142814719
110.37842315328955
110.78150508797367
111.55491068765097
112.9749719585627
115.46742231953444
119.64445599648784
126.32213385484309
136.49943953359477
151.28361955454224
171.75911837615902
198.8173702466364
232.9848819105578
236.7397471062894
200.9926607473749
172.4421008802844
150.6463771393583
134.76689257504555
123.73617278462629
116.43287229734237
111.82358978880873
109.04907873805776
107.4548286012408
106.57937712339441
106.11943433778323
105.88819122311803
105.7775278041601
105.72898156939632
105.71427392813438
105.72430425845063
105.76527897266389
105.86135165654365
106.06419862868104
106.47077319619777
107.25047195407798
108.68140161112957
111.19184540990396
115.39743700022332
122.11857880897055
132.35934853189505
147.23247407825207
167.82765629823126
195.0405404787721
229.39992156224724
234.35388848039466
198.5657190808682
169.97934324254626
148.15314907006191
132.24858351072325
121.19803069661495
113.87973875107807
109.25965576209056
106.47773878454436
104.87865650302439
104.0002042814698
103.53848748629959
103.30624710917317
103.19505605126157
103.1462614840136
103.13148492738048
103.14159981325248
103.18285900388142
103.27955284672693
103.48362548940527
103.89249484905065
104.67630896354181
106.11431816265834
108.6364466987833
112.86054041509178
119.60979043051252
129.89153313933662
144.82197080671529
165.49408458852858
192.80608355403203
227.28808280878164
232.97098875963346
197.16505536321446
168.56278302740495
146.72265239432096
130.80624816530462
119.74603658533245
112.42022177624114
107.79456444683895
105.00872412814985
103.4070195212127
102.52690215509763
102.06418046805867
101.83136446479993
101.71986396436539
101.67092263036194
101.65610735387153
101.66627927783436
101.70772245878936
101.80481404555071
102.00966610019982
102.41998591468676
103.20638727647957
104.64882648846147
107.17823736798984
111.4138218391739
118.18047245167679
128.48749987948608
143.45318971711978
164.17246127814929
191.54500426506954
226.10165282919556
232.20370093321293
196.39144012569326
167.7831930904805
145.93752334958324
130.01615737955328
118.95169826747546
111.62243086098405
106.99411672644385
104.20634280172831
102.60330651697238
101.72232044825951
101.2590615737532
101.0259310633801
100.91425842312182
100.86523483422255
100.85039941076377
100.86060851935994
100.90216641357996
100.99950326646469
101.20483230605373
101.61603382049164
102.40399830902831
103.84909910847617
106.38286308090632
110.62528391032254
117.40224043932898
127.72417768393954
142.71056485162765
163.45740615688845
190.8652009439809
225.46515036784263
231.79580002860152
195.98211646009995
167.37226295416374
145.52486632845032
129.6017638258113
118.53567913353804
111.20499465506049
106.57552722241643
103.7868743516495
102.18320871093832
101.30179806527691
100.83826880588059
100.60497588374376
100.49321251642144
100.44414527706239
100.42930028665633
100.43953276923452
100.48115955214513
100.57864195355808
100.78425172416121
101.19596832932379
101.98483969871823
103.43147468293098
105.96773255519572
110.21404723632975
116.9968410977299
127.32717793515239
142.32516488510063
163.0873819290725
190.5147474566691
225.13863755468188
231.58813401577976
195.77472548678685
167.16486445910732
145.31722048424928
129.3937052569744
118.3271275463977
110.99594624554754
106.36603334616095
103.57701631167572
101.97307542750097
101.09147080423844
100.62781342840859
100.39444115922564
100.28263241104125
100.2335431932555
100.2186941099498
100.22894066106014
100.27060715183318
100.36817242900983
100.57394065406395
100.98594566888137
101.77532095784382
103.22280224235854
105.76042626953178
110.00885979668274
116.79480977601297
127.12966042500015
142.13384506759314
162.9042333829993
190.3419489788859
224.97844510645217
231.4877442858437
195.67493431048976
167.06544622803807
145.21797592827414
129.29447987859695
118.22781911736273
110.89650192814219
106.26643940463009
103.47728480714915
101.87323148038291
100.991542924107
100.52782756277374
100.29441805600078
100.18258741614929
100.13348748442309
100.11863672358847
100.12889118601527
100.17057933060764
100.26818931773859
100.47404227625663
100.88620022468542
101.67584056268274
103.12376351929643
105.66209521076178
109.91161847372659
116.69918065741471
127.03632229456709
142.04363383383173
162.81812225405102
190.2610056946185
224.9037688181186
231.44407427456736
195.6316945493608
167.02250103773025
145.1752043471723
129.2517850797508
118.18513255883437
110.85378235457819
106.22366802376553
103.43445869440333
101.83035697066283
100.94863030453011
100.48488752136949
100.25145980837684
100.13961815029684
100.090512653339
100.07566084880457
100.0859190653283
100.12761771620475
100.22524932731407
100.43114293248563
100.84337357140814
101.63313875579378
103.0812679826746
105.61992753741899
109.86995194015195
116.65825045236595
126.99643184824235
142.0051544042786
162.78148351451455
190.22667647666384
224.87222932557472
231.43304026036176
195.62078650998004
167.01166512706715
145.1643938987575
129.2409645456255
118.17427893823525
110.8428844096435
106.21272387724105
103.42347271027182
101.81933671638434
100.93758416353432
100.47382316025605
100.24038344653763
100.1285344401671
100.0794249351401
100.06457159765509
100.07483044201702
100.11653220825907
100.21417053823845
100.42007661999459
100.83232904949728
101.62213075991127
103.07031901575269
105.60907061276481
109.85923343407984
116.64773259302737
126.98619419195634
141.9952935966975
162.77211078241032
190.21791266857448
224.8641976230029
231.44826414044525
195.6358056003224
167.02649076890222
145.17904148959968
129.25545337835786
118.1886314115904
110.85712450906884
106.22687536736767
103.43755744755995
101.83337345118875
100.95158794872395
100.48780534591107
100.25435209503458
100.14249494248037
100.09338064861785
100.07852436659029
100.0887808924352
100.13047973686635
100.22811289882726
100.4340089830063
100.84624239154844
101.63600945427827
103.08413760627985
105.62278991331314
109.87279639691526
116.66106066531187
126.99918511258952
142.00782162575538
162.78403010700774
190.22906419255477
224.87441892170668
231.4985934342727
195.6856134464649
167.07583237265123
145.22797716944638
129.3040464922228
118.23694538934568
110.90521956722966
106.27480560090646
103.485368737336
101.88110256672577
100.9992627205038
100.53544568805364
100.30197148216105
100.19010192365722
100.14098012797497
100.12611844847164
100.13636909063642
100.17805835401433
100.27567327043512
100.48153415954935
100.89370175351054
101.68335078730476
103.13127651093328
105.6695969352498
109.91908325558683
116.70656790346689
127.04357432509141
142.05067564129243
162.82486373212245
190.26734642134684
224.90960487933566
231.61158025108026
195.79790057509982
167.1874642900268
145.3390148223604
129.41456492085194
118.34702877032453
111.01495447429522
106.38427425126365
103.59464350267564
101.99024283798755
101.10831405446083
100.64444086318517
100.41093266332817
100.29904306702589
100.24990905791374
100.23503817866828
100.24527795850874
100.28694853705868
100.38452699598328
100.59031662779729
101.00234957781949
101.79175477037089
103.23925827866076
105.77688007054046
110.0252618105265
116.81107741448052
127.14567252169905
142.14944072971485
162.91921656175467
190.35609896151985
224.99153190354605
231.84340738461862
196.02938148662057
167.4184807911178
145.56949782683517
129.644498547701
118.57644490198928
111.24391959830164
106.6128731528451
103.82296381373813
102.21836383262962
101.33630040374169
100.87234097934864
100.63878012414615
100.52685932461237
100.4777061663593
100.46282056813278
100.47304231753168
100.51468088233553
100.61219550743706
100.81785820929935
101.2296475805324
102.01860521188857
103.46532314238186
106.00162848572198
110.2479044918932
117.03050461773165
127.36041042519362
142.35764303749505
163.11870523247356
190.54446001241226
225.1662605148442
232.29620967679452
196.48368512503512
167.87362398017507
146.0249459908824
130.09987309908357
119.03152304436512
111.69860963627897
107.06717659336518
104.2769354434126
102.67207910229163
101.78983341115475
101.32575312748475
101.09211670209795
100.98015038014405
100.93096890270827
100.91606109960061
100.9262547953913
100.96784210415328
101.06525223038727
101.27070317559154
101.68207910295175
102.47026470149845
103.91560699265189
106.4495748390381
110.6920642657927
117.46881617478145
127.79010714051611
142.77522759624938
163.52001948585877
190.9248638231833
225.52090913780393
233.14341395831963
197.33770758060862
168.7324191872529
146.88676529516218
130.96335935232688
119.89573112348366
112.56296144631978
107.93137738553735
105.14087948921083
103.53576763347097
102.65331455671452
102.18908536912822
101.95535093830419
101.84332347677179
101.7941029157889
101.7791635512473
101.78931594642937
101.83082551733831
101.92807345865343
102.13318918480465
102.54389866100603
103.33081862134684
104.77387010589523
107.30388876664301
111.53989631940354
118.30651925215044
128.61273532820027
143.57647229540765
164.29232254616662
191.6597352693704
226.209433043629
234.6620038922182
198.87544264676268
170.2842207584511
148.44818593420788
132.53083325401676
121.46664814965996
114.1355865444486
109.50467549362583
106.71431010465969
105.10909985046054
104.22648596174221
103.76210962841238
103.52826557018554
103.41616439975756
103.36689414817202
103.35191269001622
103.36200749641223
103.40340510190237
103.50041377397497
103.70502474356053
104.1147118417465
104.89965634429456
106.33907429787331
108.86273557875549
113.08816748145772
119.83806535504023
130.11912890409187
145.04686921782076
165.71363635621321
193.0171767213235
227.48738540987816
237.26711987266572
201.5246669443015
172.96650567621074
151.15373745723895
135.25167705493112
124.19681655815617
116.87097444820316
112.24269407289964
109.45347272097672
107.84864221525369
106.96606908992786
106.50161699719304
106.26768052523401
106.15550388943089
106.10617677479507
106.09114303288015
106.10116189360029
106.14240635791731
106.23907939684955
106.44296720774528
106.85116133271158
107.6331697595173
109.06709821349367
111.58100884256801
115.78999616420327
122.51356768598613
132.7546183840549
147.62458389779405
168.21199840168825
195.41167127805966
229.75200801636808
241.53984339379048
205.88694744871836
177.3965955245171
155.63222476474735
139.7626375995416
128.72819788343702
121.4143351688807
116.79255864575444
114.00655916390335
112.40314550522935
111.52109010434218
111.05676087308116
110.82280416694375
110.71057244099244
110.66118957405462
110.6460960836622
110.65602045892818
110.69706613901113
110.79329157559734
110.99619352801352
111.40231207976035
112.1801648989406
113.60619409283541
116.10585776226121
120.29047882775545
126.97454947347423
137.15490722293058
151.93644572619715
172.40154044181253
199.44022988587005
233.57842887269982
248.2342756729366
212.74632628988644
184.38152683577175
162.70746608566162
146.89920062870561
135.90401041471725
128.61375304742705
124.00524880879202
121.22617172791354
119.6260682629997
118.74543282586453
118.28162383671194
118.04780644515981
117.9355761873904
117.88615301748976
117.87099809656648
117.8808119140865
117.92161274551603
118.01727032556246
118.21889227469599
118.62226116936138
119.39450811799247
120.80970326053897
123.28952626069862
127.43973288449703
134.06728894277842
144.1598204285497
158.81219219740086
179.09734097349573
205.8980228296226
239.73633888013904
258.24913464132123
223.04071625742608
194.88917557852454
173.3692081132439
157.66649304433594
146.739713498556
139.49126750806698
134.9067327621284
132.14048341824122
130.54674784666528
129.66901394210913
129.20639436377246
128.97299614219844
128.86087434917883
128.81144682432262
128.7962377503831
128.80593036230337
128.8464448264932
128.9414159383237
129.14145194643467
129.54134257242708
130.3063678984002
131.7073761300708
134.160827627367
138.2646561127865
144.81506347746273
154.78624165819105
169.25829703103912
189.29030985742645
215.75468965612157
249.16828470134055
272.55335783195187
237.78449789393713
209.96781429166683
188.6908559357243
173.15597749287187
162.33932184598874
155.15888210974512
150.61377249894593
147.86891776303435
146.28601000684654
145.41335618039687
144.95292241614985
144.7203685081336
144.6085234678424
144.55915277319022
144.54390829648352
144.553476992209
144.59367272432513
144.68785040125962
144.88600431078433
145.28167815651855
146.03778861864097
147.4210040188533
149.84090990087168
153.8849766195089
160.3347570301595
170.14577112523864
184.3767946917191
204.06737087729636
230.07582964760465
262.9138239823477
292.0695447882857
257.942614459148
230.61486914382778
209.69313369904359
194.40856298577862
183.7573052110765
176.67960827435664
172.19441630056335
169.48232399150672
167.91617475917263
167.05150969272756
166.5946011524569
166.36346936818865
166.25213407663932
166.20290826754052
166.1876596086965
166.19711085475555
166.23696739085165
166.3302631849556
166.52626533722244
166.91701260975154
167.662522010952
169.02426127624403
171.4031520372402
175.37331225764558
181.69734979615626
191.30617284587169
205.2296491803565
224.47570099176207
249.8887433019469
281.9747968632329
317.52607982744047
284.2898152728092
257.60071946681285
237.17823820110917
222.2455666836582
211.82747344056378
204.8948773322325
200.4945378895308
197.8290333835666
196.28686245785664
195.43373575533883
194.98199396820323
194.75299727314305
194.64246241868307
194.59349371421365
194.57828341283627
194.58763221183392
194.62714070317207
194.7194857126054
194.91309869624803
195.29825744214827
196.03153939360658
197.36817080925167
199.69857093157646
203.58052853103692
209.75329536484344
219.11721314551812
232.66542441475744
251.36638070676437
275.998092896485
307.1488650076699
349.57449225170535
317.11472944860964
291.3288887348092
271.5710602428394
257.10627927119566
246.9973381691152
240.25711817903115
235.9694129012077
233.3659020188278
231.8557666977006
231.01814974015537
230.57341757390842
230.34736072033857
230.23795705631977
230.18937448325892
230.17425309033973
230.18352032591397
230.222679836452
230.31401893555181
230.50502938701385
230.88397870181902
231.60347082505933
232.911459226859
235.18603345097284
238.9657082548454
244.96208633785943
254.03934537714628
267.14804206482455
285.2091456390551
308.9713108157549
338.59869198197987
