# vtk DataFile Version 2.0
Unstructured Grid Example
ASCII
DATASET UNSTRUCTURED_GRID

POINTS 961 float
0.100000001 0.00499999989 0
0.0966666639 0.00499999989 0
0.0933333337 0.00499999989 0
0.0900000036 0.00499999989 0
0.086666666 0.00499999989 0
0.0833333358 0.00499999989 0
0.0799999982 0.00499999989 0
0.0766666681 0.00499999989 0
0.0733333305 0.00499999989 0
0.0700000003 0.00499999989 0
0.0666666701 0.00499999989 0
0.0633333325 0.00499999989 0
0.0599999987 0.00499999989 0
0.0566666685 0.00499999989 0
0.0533333346 0.00499999989 0
0.0500000007 0.00499999989 0
0.0466666669 0.00499999989 0
0.043333333 0.00499999989 0
0.0399999991 0.00499999989 0
0.0366666652 0.00499999989 0
0.0333333351 0.00499999989 0
0.0299999993 0.00499999989 0
0.0266666673 0.00499999989 0
0.0233333334 0.00499999989 0
0.0199999996 0.00499999989 0
0.0166666675 0.00499999989 0
0.0133333337 0.00499999989 0
0.00999999978 0.00499999989 0
0.00666666683 0.00499999989 0
0.00333333341 0.00499999989 0
0 0.00499999989 0
0.100000001 0.00166666671 0
0.0966666639 0.00166666671 0
0.0933333337 0.00166666671 0
0.0900000036 0.00166666671 0
0.086666666 0.00166666671 0
0.0833333358 0.00166666671 0
0.0799999982 0.00166666671 0
0.0766666681 0.00166666671 0
0.0733333305 0.00166666671 0
0.0700000003 0.00166666671 0
0.0666666701 0.00166666671 0
0.0633333325 0.00166666671 0
0.0599999987 0.00166666671 0
0.0566666685 0.00166666671 0
0.0533333346 0.00166666671 0
0.0500000007 0.00166666671 0
0.0466666669 0.00166666671 0
0.043333333 0.00166666671 0
0.0399999991 0.00166666671 0
0.0366666652 0.00166666671 0
0.0333333351 0.00166666671 0
0.0299999993 0.00166666671 0
0.0266666673 0.00166666671 0
0.0233333334 0.00166666671 0
0.0199999996 0.00166666671 0
0.0166666675 0.00166666671 0
0.0133333337 0.00166666671 0
0.00999999978 0.00166666671 0
0.00666666683 0.00166666671 0
0.00333333341 0.00166666671 0
0 0.00166666671 0
0.100000001 -0.00166666671 0
0.0966666639 -0.00166666671 0
0.0933333337 -0.00166666671 0
0.0900000036 -0.00166666671 0
0.086666666 -0.00166666671 0
0.0833333358 -0.00166666671 0
0.0799999982 -0.00166666671 0
0.0766666681 -0.00166666671 0
0.0733333305 -0.00166666671 0
0.0700000003 -0.00166666671 0
0.0666666701 -0.00166666671 0
0.0633333325 -0.00166666671 0
0.0599999987 -0.00166666671 0
0.0566666685 -0.00166666671 0
0.0533333346 -0.00166666671 0
0.0500000007 -0.00166666671 0
0.0466666669 -0.00166666671 0
0.043333333 -0.00166666671 0
0.0399999991 -0.00166666671 0
0.0366666652 -0.00166666671 0
0.0333333351 -0.00166666671 0
0.0299999993 -0.00166666671 0
0.0266666673 -0.00166666671 0
0.0233333334 -0.00166666671 0
0.0199999996 -0.00166666671 0
0.0166666675 -0.00166666671 0
0.0133333337 -0.00166666671 0
0.00999999978 -0.00166666671 0
0.00666666683 -0.00166666671 0
0.00333333341 -0.00166666671 0
0 -0.00166666671 0
0.100000001 -0.00499999989 0
0.0966666639 -0.00499999989 0
0.0933333337 -0.00499999989 0
0.0900000036 -0.00499999989 0
0.086666666 -0.00499999989 0
0.0833333358 -0.00499999989 0
0.0799999982 -0.00499999989 0
0.0766666681 -0.00499999989 0
0.0733333305 -0.00499999989 0
0.0700000003 -0.00499999989 0
0.0666666701 -0.00499999989 0
0.0633333325 -0.00499999989 0
0.0599999987 -0.00499999989 0
0.0566666685 -0.00499999989 0
0.0533333346 -0.00499999989 0
0.0500000007 -0.00499999989 0
0.0466666669 -0.00499999989 0
0.043333333 -0.00499999989 0
0.0399999991 -0.00499999989 0
0.0366666652 -0.00499999989 0
0.0333333351 -0.00499999989 0
0.0299999993 -0.00499999989 0
0.0266666673 -0.00499999989 0
0.0233333334 -0.00499999989 0
0.0199999996 -0.00499999989 0
0.0166666675 -0.00499999989 0
0.0133333337 -0.00499999989 0
0.00999999978 -0.00499999989 0
0.00666666683 -0.00499999989 0
0.00333333341 -0.00499999989 0
0 -0.00499999989 0
0.100000001 -0.00833333377 0
0.0966666639 -0.00833333377 0
0.0933333337 -0.00833333377 0
0.0900000036 -0.00833333377 0
0.086666666 -0.00833333377 0
0.0833333358 -0.00833333377 0
0.0799999982 -0.00833333377 0
0.0766666681 -0.00833333377 0
0.0733333305 -0.00833333377 0
0.0700000003 -0.00833333377 0
0.0666666701 -0.00833333377 0
0.0633333325 -0.00833333377 0
0.0599999987 -0.00833333377 0
0.0566666685 -0.00833333377 0
0.0533333346 -0.00833333377 0
0.0500000007 -0.00833333377 0
0.0466666669 -0.00833333377 0
0.043333333 -0.00833333377 0
0.0399999991 -0.00833333377 0
0.0366666652 -0.00833333377 0
0.0333333351 -0.00833333377 0
0.0299999993 -0.00833333377 0
0.0266666673 -0.00833333377 0
0.0233333334 -0.00833333377 0
0.0199999996 -0.00833333377 0
0.0166666675 -0.00833333377 0
0.0133333337 -0.00833333377 0
0.00999999978 -0.00833333377 0
0.00666666683 -0.00833333377 0
0.00333333341 -0.00833333377 0
0 -0.00833333377 0
0.100000001 -0.0116666667 0
0.0966666639 -0.0116666667 0
0.0933333337 -0.0116666667 0
0.0900000036 -0.0116666667 0
0.086666666 -0.0116666667 0
0.0833333358 -0.0116666667 0
0.0799999982 -0.0116666667 0
0.0766666681 -0.0116666667 0
0.0733333305 -0.0116666667 0
0.0700000003 -0.0116666667 0
0.0666666701 -0.0116666667 0
0.0633333325 -0.0116666667 0
0.0599999987 -0.0116666667 0
0.0566666685 -0.0116666667 0
0.0533333346 -0.0116666667 0
0.0500000007 -0.0116666667 0
0.0466666669 -0.0116666667 0
0.043333333 -0.0116666667 0
0.0399999991 -0.0116666667 0
0.0366666652 -0.0116666667 0
0.0333333351 -0.0116666667 0
0.0299999993 -0.0116666667 0
0.0266666673 -0.0116666667 0
0.0233333334 -0.0116666667 0
0.0199999996 -0.0116666667 0
0.0166666675 -0.0116666667 0
0.0133333337 -0.0116666667 0
0.00999999978 -0.0116666667 0
0.00666666683 -0.0116666667 0
0.00333333341 -0.0116666667 0
0 -0.0116666667 0
0.100000001 -0.0149999997 0
0.0966666639 -0.0149999997 0
0.0933333337 -0.0149999997 0
0.0900000036 -0.0149999997 0
0.086666666 -0.0149999997 0
0.0833333358 -0.0149999997 0
0.0799999982 -0.0149999997 0
0.0766666681 -0.0149999997 0
0.0733333305 -0.0149999997 0
0.0700000003 -0.0149999997 0
0.0666666701 -0.0149999997 0
0.0633333325 -0.0149999997 0
0.0599999987 -0.0149999997 0
0.0566666685 -0.0149999997 0
0.0533333346 -0.0149999997 0
0.0500000007 -0.0149999997 0
0.0466666669 -0.0149999997 0
0.043333333 -0.0149999997 0
0.0399999991 -0.0149999997 0
0.0366666652 -0.0149999997 0
0.0333333351 -0.0149999997 0
0.0299999993 -0.0149999997 0
0.0266666673 -0.0149999997 0
0.0233333334 -0.0149999997 0
0.0199999996 -0.0149999997 0
0.0166666675 -0.0149999997 0
0.0133333337 -0.0149999997 0
0.00999999978 -0.0149999997 0
0.00666666683 -0.0149999997 0
0.00333333341 -0.0149999997 0
0 -0.0149999997 0
0.100000001 -0.0183333326 0
0.0966666639 -0.0183333326 0
0.0933333337 -0.0183333326 0
0.0900000036 -0.0183333326 0
0.086666666 -0.0183333326 0
0.0833333358 -0.0183333326 0
0.0799999982 -0.0183333326 0
0.0766666681 -0.0183333326 0
0.0733333305 -0.0183333326 0
0.0700000003 -0.0183333326 0
0.0666666701 -0.0183333326 0
0.0633333325 -0.0183333326 0
0.0599999987 -0.0183333326 0
0.0566666685 -0.0183333326 0
0.0533333346 -0.0183333326 0
0.0500000007 -0.0183333326 0
0.0466666669 -0.0183333326 0
0.043333333 -0.0183333326 0
0.0399999991 -0.0183333326 0
0.0366666652 -0.0183333326 0
0.0333333351 -0.0183333326 0
0.0299999993 -0.0183333326 0
0.0266666673 -0.0183333326 0
0.0233333334 -0.0183333326 0
0.0199999996 -0.0183333326 0
0.0166666675 -0.0183333326 0
0.0133333337 -0.0183333326 0
0.00999999978 -0.0183333326 0
0.00666666683 -0.0183333326 0
0.00333333341 -0.0183333326 0
0 -0.0183333326 0
0.100000001 -0.0216666665 0
0.0966666639 -0.0216666665 0
0.0933333337 -0.0216666665 0
0.0900000036 -0.0216666665 0
0.086666666 -0.0216666665 0
0.0833333358 -0.0216666665 0
0.0799999982 -0.0216666665 0
0.0766666681 -0.0216666665 0
0.0733333305 -0.0216666665 0
0.0700000003 -0.0216666665 0
0.0666666701 -0.0216666665 0
0.0633333325 -0.0216666665 0
0.0599999987 -0.0216666665 0
0.0566666685 -0.0216666665 0
0.0533333346 -0.0216666665 0
0.0500000007 -0.0216666665 0
0.0466666669 -0.0216666665 0
0.043333333 -0.0216666665 0
0.0399999991 -0.0216666665 0
0.0366666652 -0.0216666665 0
0.0333333351 -0.0216666665 0
0.0299999993 -0.0216666665 0
0.0266666673 -0.0216666665 0
0.0233333334 -0.0216666665 0
0.0199999996 -0.0216666665 0
0.0166666675 -0.0216666665 0
0.0133333337 -0.0216666665 0
0.00999999978 -0.0216666665 0
0.00666666683 -0.0216666665 0
0.00333333341 -0.0216666665 0
0 -0.0216666665 0
0.100000001 -0.0250000004 0
0.0966666639 -0.0250000004 0
0.0933333337 -0.0250000004 0
0.0900000036 -0.0250000004 0
0.086666666 -0.0250000004 0
0.0833333358 -0.0250000004 0
0.0799999982 -0.0250000004 0
0.0766666681 -0.0250000004 0
0.0733333305 -0.0250000004 0
0.0700000003 -0.0250000004 0
0.0666666701 -0.0250000004 0
0.0633333325 -0.0250000004 0
0.0599999987 -0.0250000004 0
0.0566666685 -0.0250000004 0
0.0533333346 -0.0250000004 0
0.0500000007 -0.0250000004 0
0.0466666669 -0.0250000004 0
0.043333333 -0.0250000004 0
0.0399999991 -0.0250000004 0
0.0366666652 -0.0250000004 0
0.0333333351 -0.0250000004 0
0.0299999993 -0.0250000004 0
0.0266666673 -0.0250000004 0
0.0233333334 -0.0250000004 0
0.0199999996 -0.0250000004 0
0.0166666675 -0.0250000004 0
0.0133333337 -0.0250000004 0
0.00999999978 -0.0250000004 0
0.00666666683 -0.0250000004 0
0.00333333341 -0.0250000004 0
0 -0.0250000004 0
0.100000001 -0.0283333343 0
0.0966666639 -0.0283333343 0
0.0933333337 -0.0283333343 0
0.0900000036 -0.0283333343 0
0.086666666 -0.0283333343 0
0.0833333358 -0.0283333343 0
0.0799999982 -0.0283333343 0
0.0766666681 -0.0283333343 0
0.0733333305 -0.0283333343 0
0.0700000003 -0.0283333343 0
0.0666666701 -0.0283333343 0
0.0633333325 -0.0283333343 0
0.0599999987 -0.0283333343 0
0.0566666685 -0.0283333343 0
0.0533333346 -0.0283333343 0
0.0500000007 -0.0283333343 0
0.0466666669 -0.0283333343 0
0.043333333 -0.0283333343 0
0.0399999991 -0.0283333343 0
0.0366666652 -0.0283333343 0
0.0333333351 -0.0283333343 0
0.0299999993 -0.0283333343 0
0.0266666673 -0.0283333343 0
0.0233333334 -0.0283333343 0
0.0199999996 -0.0283333343 0
0.0166666675 -0.0283333343 0
0.0133333337 -0.0283333343 0
0.00999999978 -0.0283333343 0
0.00666666683 -0.0283333343 0
0.00333333341 -0.0283333343 0
0 -0.0283333343 0
0.100000001 -0.0316666663 0
[...]
POINT_DATA 961
SCALARS Temp float 1
LOOKUP_TABLE default
341.0847306014695
309.9525319310198
285.1987164493891
266.3902045955362
252.75373244202112
243.32814551003568
237.1187907857359
233.21943622051415
230.88377670282975
229.54812203613227
228.8180790194053
228.4362586406309
228.24516573947992
228.15423842319865
228.1148942622657
228.10402685882843
228.1148942325261
228.15423834346134
228.24516570663113
228.4362585694031
228.81807765284753
229.5481210403352
230.88377573507657
233.21943092387923
237.11878703291018
243.3281260713751
252.75371430963983
266.39015908107467
285.19867123479787
309.9525077149651
341.08465929934164
309.95262002582297
277.6918116399239
252.0402493000087
232.5492552729687
218.41764522875746
208.64954820467233
202.21435256698805
198.17303159188916
195.75224276455154
194.36784934878466
193.61113364812152
193.21534522475028
193.01725247348838
192.92299018234607
192.88220137437148
192.87093466306732
192.88220134334335
192.9229900991341
193.0172524381214
193.21534514791543
193.6111322249831
194.36784830244318
195.75224173190875
198.17302604192554
202.2143485562334
208.64952781535948
218.41762594136068
232.5492069789473
252.04020011948012
277.69176925475756
309.95251134002666
285.1988045609435
252.0402561611334
225.6738422231335
205.6386503682756
191.111555880276
181.0693315841646
174.45296666858053
170.29746689155579
167.80801913406592
166.38419866062208
165.6058380461685
165.19867748846764
164.99486688649964
164.89787161729464
164.85589561159426
164.844300181107
164.85589557910373
164.8978715301079
164.99486684638947
165.19867740095927
165.60583656363738
166.3841975447901
167.80801798994855
170.29746101843676
174.45296221505356
181.06930997276365
191.11153475921384
205.63859809059932
225.6737852984787
252.04020027184248
285.19867460723714
266.39029971499355
232.54927081067268
205.638660455131
185.18843838094898
170.3590561698038
160.10675028007506
153.35112415955138
149.10756224625135
146.56496641367747
145.11050663530025
144.31525642826224
143.89918451823974
143.69087408783926
143.5917190488944
143.54880144910095
143.53694471969717
143.5488014150468
143.59171895744413
143.69087404134288
143.89918441639455
144.3152548863747
145.11050543830638
146.56496512833988
149.10755601630518
153.3511191626152
160.10672736108387
170.35903300811404
185.18838201328367
205.63859715777343
232.54920615791457
266.39015943457264
252.75386364487508
218.4176963242659
191.11160238393677
170.35909330400725
155.30893338880153
144.9026927343153
138.04464393864833
133.73604582850865
131.15402135654594
129.67672172023995
128.8688175136731
128.44603411493898
128.2343167425322
128.13351808419887
128.08988072895016
128.07782371383652
128.0898806933335
128.1335179884922
128.2343166888399
128.44603399706872
128.86881591615347
129.67672044005747
131.15401992212338
133.736039252282
138.04463839648847
144.9026686202542
155.30890840007456
170.3590336816734
191.111534616416
218.41762643537353
252.75371727655826
243.3282863123867
208.64960444720168
181.06938290390994
160.1067923191414
144.90269742149246
134.38871305399869
127.45865874446179
123.1041137210455
120.49408439328417
119.0004695349578
118.18347185035104
117.75583544715187
117.54163906485013
117.4396371632296
117.39547012106917
117.38326523203136
117.39547008399585
117.43963706357201
117.54163900400752
117.75583531354795
118.1834702042355
119.00046817843945
120.49408282141565
123.10410684483503
127.45865273040164
134.3886879791576
144.90267103214617
160.10673039906465
181.06931223987772
208.64953139758296
243.32813631596457
237.11894687826438
202.21442437995117
174.45303441340928
153.35118328075038
138.04466591862197
127.45867626656252
120.48025706588453
116.0946761863128
113.46561404968747
111.96083804162656
111.1375765416064
110.7065733500549
110.49064468637916
110.38779607935
110.34325404485708
110.33094407833165
110.3432540065159
110.38779597627696
110.49064461911506
110.70657320253187
111.13757485597475
111.96083662152694
113.46561236434827
116.09466907483068
120.48025068808509
127.45865049507968
138.0446385590006
153.35111985778045
174.45296195168115
202.21434945707932
237.11879473456833
233.21958592948258
198.17310140140205
170.29753429376171
149.10762163549325
133.73606819845074
123.10413173668796
116.09467664451086
111.68905456093498
109.04761762657485
107.53553139961171
106.70813546395586
106.27489215959507
106.05780152145383
105.95438047913608
105.90958319664189
105.89720140795873
105.9095831572682
105.95438037330624
106.0578014489033
106.27489200081136
106.70813374836948
107.53552993093597
109.04761585596032
111.68904728030422
116.09467001147539
123.10410549970585
133.73604021518707
149.1075572837252
170.29746076068733
198.17302539680827
233.21943254401654
230.88392401879094
195.75231517848687
167.80809077833996
146.5650306199691
131.15404874622314
120.49410757701989
113.46561971068559
109.04762286582265
106.39848747015084
104.88181679972728
104.05180595805201
103.61713332138804
103.39929461618192
103.29550183959692
103.2505375601848
103.23810856638295
103.25053752002229
103.2955017316837
103.39929453960477
103.61713315419088
104.0518042212383
104.88181529671782
106.39848564048471
109.04761547251191
113.4656129119528
120.49408104936695
131.15402038578742
146.5649657220491
167.80801663183527
195.75223856894556
230.88376993680873
229.54826933685666
194.36792166071726
166.3842697396914
145.11057028859096
129.67674857260013
119.00049222381546
111.96084320342513
107.53553614616409
104.88181629797711
103.36239188285366
102.53079591701265
102.0952485586956
101.876947605899
101.77292296334177
101.7278536783082
101.71539485601879
101.72785363757932
101.77292285394994
101.87694752646505
102.09524838565018
102.53079416608871
103.36239035723135
104.88181443027091
107.53552868268524
111.96083630405775
119.00046552503106
129.67671999593952
145.11050508404787
166.3841952558259
194.3678447246108
229.54811487752693
228.81823736457386
193.61120785097933
165.6059097300042
144.31532045473057
128.86884468615432
118.18349485955915
111.13758200949583
106.7081405140571
104.05180575160549
102.53079621084225
101.69827892132544
101.26221798548414
101.04364282678421
100.93947926247459
100.894346522876
100.88186958110099
100.89434648176376
100.93947915209503
101.04364274545233
101.26221780863476
101.69827716157248
102.53079467125684
104.05180386093204
106.70813300945015
111.13757505250793
118.18346806522959
128.86881599147367
144.3152550854966
165.60583506794606
193.61113074501526
228.8180827082073
228.43641899285848
193.21542097609512
165.19875067433043
143.89925001827655
128.44606271760202
117.75585985600699
110.706580188142
106.27489856609833
103.6171344606
102.09525019450227
101.26221932616848
100.82586906775683
100.60713776611527
100.50289426577689
100.45772468688318
100.44523716846645
100.4577246455261
100.50289415477474
100.60713768359842
100.82586888858253
101.2622175611993
102.09524864679511
103.61713255685704
106.27489103868727
110.70657319989013
117.7558330109006
128.44603396142062
143.8991845643083
165.1986759218734
193.2153437850855
228.4362642374559
228.24531606838866
193.0173273531452
164.99494040470907
143.6909400747481
128.2343457328447
117.54166376914671
110.49065175450853
106.05780812192131
103.39929592810621
101.87694940437477
101.04364432535922
100.60713792192396
100.3883214225479
100.2840338405998
100.23884376138108
100.2263503249356
100.23884371987664
100.28403372922783
100.3883213393351
100.60713774141242
101.04364255747844
101.87694785220906
103.39929401733698
106.05780058252522
110.49064475014956
117.54163689832512
128.2343169460526
143.69087457903456
164.9948656082559
193.01725012121943
228.24516126515974
228.15438844985422
192.92306511476053
164.89794600143668
143.59178561672613
128.13354741123914
117.43966205031853
110.38780324055767
105.95438712490241
103.29550317102532
101.77292476874607
100.93948076191863
100.50289441965066
100.28403383781497
100.17972321250652
100.13452232312729
100.12202574959692
100.13452228154021
100.1797231009298
100.28403375422184
100.50289423842263
100.9394789925167
101.77292321429023
103.29550125671612
105.95437957958342
110.38779622838264
117.43963516718844
128.1335186100208
143.59172010149356
164.89787118463295
192.9229878641124
228.15423362463852
228.11504922160736
192.88228087530396
164.85597172996574
143.5488688609504
128.0899105071571
117.39549527485943
110.34326137961914
105.90958996904006
103.25053899423317
101.72785557467635
100.89434810771563
100.45772492357135
100.23884384042626
100.13452240468341
100.08931640641208
100.07681834373916
100.0893163647844
100.13452229300724
100.23884375665081
100.45772474200623
100.89434633761265
101.7278540191835
103.25053707835013
105.90958242112694
110.3432543640816
117.39546838647907
128.08988169987734
143.5488033375503
164.85589690473904
192.8822036170032
228.1148943873278
228.1042047909899
192.8710186822192
164.8443778748138
143.5370127725209
128.07785380530686
117.38329055970846
110.33095152098865
105.89720825579259
103.23811005961254
101.71539680363463
100.88187121338743
100.44523745083168
100.22635044890929
100.12202587579866
100.07681838830084
100.06431989040573
100.07681834666113
100.12202576409385
100.22635036508335
100.44523726917691
100.88186944310148
101.7153952478843
103.23810814335484
105.89720070727033
110.33094450470007
117.38326367014106
128.0778249967181
143.53694724732767
164.84430304780602
192.8709414224044
228.10404995478308
228.11507232663143
192.88228551689963
164.85597339772778
143.54886955513447
128.0899108405367
117.3954954453871
110.34326147023492
105.90959001890666
103.25053902319628
101.72785559304168
100.89434812082685
100.45772493415153
100.23884384982726
100.1345224135573
100.08931641506906
100.0768183523378
100.08931637344135
100.13452230188307
100.23884376606057
100.45772475261242
100.89434635078553
101.72785403767733
103.25053710755401
105.90958247140559
110.34325445534665
117.39546855795332
128.0898820345372
143.54880403334138
164.8558985743747
192.88220826063153
228.11491749435982
228.15439385679534
192.92307013010307
164.8979480656265
143.59178666153514
128.13354795772656
117.43966234624607
110.38780340468192
105.95438721910723
103.29550322843635
101.77292480718252
100.93948079083779
100.50289444394869
100.28403385994854
100.17972323366907
100.13452234388913
100.12202577025039
100.13452230230023
100.1797231220924
100.2840337763678
100.50289426276817
100.93947902156248
101.77292325300739
103.29550131467644
105.95437967475951
110.38779639407818
117.43963546545501
128.13351915972459
143.59172115039243
164.89787325363545
192.92299288468828
228.15423903681935
228.24531689311752
193.01732839348296
164.99494202124674
143.69094109716292
128.23434634899598
117.54166413317165
110.49065197232359
106.0578082573893
103.3992960185671
101.87694947104058
101.043644379894
100.60713797050656
100.38832146832428
100.28403388511238
100.23884380537015
100.22635036878101
100.23884376385702
100.28403377372817
100.3883213851116
100.60713779004594
101.04364261219543
101.8769479193351
103.39929410877107
106.05780071981083
110.4906449710285
117.54163726706106
128.23431756884716
143.69087561006114
164.99486723506485
193.01725117281808
228.24516210120834
228.43641056048995
193.21542207788144
165.1987517588487
143.89925091833894
128.44606333185774
117.75586026309963
110.70658046137004
106.27489875882107
103.61713460745845
102.09525031648822
101.26221943528346
100.82586917050614
100.60713786585295
100.50289436415667
100.4577247846987
100.445237266122
100.45772474331582
100.50289425310721
100.60713778328522
100.8258689913318
101.26221767049394
102.0952487693974
103.61713270521088
106.27489123444646
110.70657347854632
117.7558334267145
128.44603458839347
143.89918548127494
165.19867702691116
193.21534490960255
228.43625582802403
228.8182481949688
193.61120956627857
165.60591119613855
144.31532160813097
128.8688456391032
118.18349565526792
111.13758269607838
106.70814113172368
104.05180632900549
102.53079676619755
101.6982794652839
101.26221852385004
101.04364336253653
100.93947979706392
100.89434705698353
100.88187011506083
100.89434701580959
100.93947968655785
101.04364328102243
101.26221834682084
101.69827770553084
102.53079522719665
104.05180444026749
106.70813363164206
111.13757574791035
118.1834688759902
128.86881696736356
144.31525627039707
165.60583657318645
193.61113250422844
228.81809358308374
229.54827160102036
194.36792341082943
166.38427023421858
145.11057053758833
129.67674864796854
119.00049216385695
111.9608430481534
107.53553593082722
104.88181604793017
103.3623916141024
102.53079563876217
102.09524827586723
101.87694732096593
101.77292267748152
101.7278533920572
101.71539456962469
101.72785335119966
101.77292256780898
101.87694724107178
102.09524810220526
102.53079388725364
103.36239008847994
104.88181418201044
107.53552847306995
111.9608361616643
119.00046548908212
129.6767201102036
145.1105053888169
166.3841958216696
194.367846556213
229.5481172247344
230.88392546421645
195.75231672361244
167.80809283731728
146.5650326630467
131.154050666972
120.49410939911293
113.46562147178523
109.047624594408
106.39848918328762
104.88181850632151
104.05180766224306
103.61713502487825
103.39929631956382
103.29550354301402
103.25053926361832
103.23811026975385
103.25053922321494
103.29550343455128
103.39929624201329
103.61713485618569
104.05180592349377
104.88181700152553
106.39848735362145
109.04761720626418
113.46561468905435
120.49408290604217
131.15402236787557
146.56496785861657
167.80801881531335
195.75224025974268
230.88377153186752
233.2195796977724
198.17309978020256
170.2975339584192
149.10762108762594
133.73606745439776
123.10413088415137
116.09467574756881
111.68905365118609
109.04761671646953
107.5355304925915
106.70813456001983
106.27489125783181
106.05780062098101
105.9543795793265
105.90958229708636
105.89720050835494
105.90958225730056
105.95437947252536
106.05780054661263
106.2748910960114
106.70813283990803
107.53552901819374
109.0476149406878
111.68904637055499
116.0946691287625
123.1041046897797
133.73603955921456
149.10755688315894
170.29746063344032
198.1730240274334
233.21942657389357
237.11894697802663
202.21443297360616
174.4530410421304
153.3511894541033
138.04467196945438
127.45868236145456
120.48026324668568
116.09468244551479
113.46562036593707
111.96084439452916
111.13758291608457
110.70657973637083
110.49065107879157
110.38780247468296
110.34326044138484
110.33095047500315
110.34326040239444
110.3878023700387
110.49065100846347
110.70657958341928
111.13758122163281
111.96084296155105
113.46561866459571
116.09467531980307
120.48025686888602
127.45865662778996
138.04464471932852
153.35112624597355
174.45296891331694
202.21435847474228
237.11879528207248
243.32831810108556
208.64960904880974
181.0693851494342
160.10679383466683
144.902698993612
134.3887148472962
127.45866074827998
123.10411587978103
120.49408665263518
119.00047185429305
118.18347420308515
117.75583781740737
117.54164144379314
117.43963954619933
117.39547250563756
117.3832676167662
117.3954724676174
117.43963944420253
117.54164137823925
117.75583767508152
118.18347254191718
119.00047047376468
120.49408504618397
123.10410896095915
127.45865469640071
134.3886897724545
144.90267270416297
160.10673219286284
181.0693149939152
208.64953670225123
243.3281688676001
252.75385188621357
218.4176890005225
191.11159297481086
170.35908419376614
155.30892487677102
144.9026847487857
138.04463632855362
133.73603846092502
131.15401413441808
129.67671458008056
128.86881041717828
128.44602704051147
128.23430967868867
128.13351102511126
128.08987367168447
128.0778166566992
128.0898736347872
128.13351092618794
128.23430961835274
128.44602690992346
128.86880879671727
129.6767132610018
131.1540126386554
133.73603179661637
138.0446306768965
144.9026605348247
155.30889988804108
170.35902485029249
191.11152593196965
218.41762028631345
252.75370684274986
266.39029418057794
232.5492694730737
205.6386631814363
185.18844386346183
170.35906350328116
160.1067588092802
153.3511334445941
149.10757198831882
146.56497641950347
145.11051678632356
144.31526665558582
143.89919478387048
143.69088437183012
143.5917293411903
143.54881174467425
143.53695501570573
143.548811709012
143.59172924564845
143.69088431672049
143.89919466511978
144.31526508219733
145.11051553355665
146.56497504067505
149.10756561106948
153.35112823281563
160.10673561201367
170.35904006272537
185.1883874957967
205.6386008050358
232.5492067939897
266.39015642915746
285.1987697240371
252.0402285107938
225.67382326325958
205.6386357627066
191.1115436549967
181.06932080752873
174.45295675806014
170.2974574834086
167.8080100059727
166.38418968215544
165.605829144237
165.19866862400352
164.99485803955946
164.89786277808452
164.85588677532854
164.84429134510486
164.85588674096297
164.8978626860831
164.99485798917618
165.19866851597453
165.60582762259918
166.38418849500567
167.80800873735313
170.29745140219117
174.45295197161516
181.06929868760957
191.11152180924424
205.6385825640692
225.67376633859837
252.04017676916737
285.19864474395223
309.95258947322526
277.6918171219576
252.0402653196001
232.54927617763593
218.4176694535717
208.64957450049025
202.214380119422
198.17305987834743
195.752271463281
194.3678782697793
193.61116268406627
193.21537431771162
193.0172815935358
192.92301931458343
192.88223051144072
192.870963800877
192.88223047838466
192.9230192261358
193.01728154690613
193.21537421814168
193.61116121701605
194.3678771419465
195.75227028496525
198.1730540765549
202.21437568465277
208.64955340812188
218.41764899147836
232.54922590993652
252.0402119913855
277.69177473677183
309.952507671099
341.0847052390209
309.9525213114166
285.1987048859943
266.3901973769099
252.75372810155184
243.32814299335945
237.11878935911074
233.21943542051383
230.88377624897407
229.54812176587365
228.8180788425786
228.43625850940234
228.24516562955475
228.1542383226859
228.114894165375
228.104026762343
228.11489413360675
228.1542382377013
228.24516558538676
228.4362584152438
228.81807743153126
229.54812068702822
230.88377513158747
233.21942986229524
237.11878515854156
243.32812279173203
252.75370864430306
266.3901493334505
285.19865469776073
309.9524702116952
341.0846339369185
