# vtk DataFile Version 2.0
Unstructured Grid Example
ASCII
DATASET UNSTRUCTURED_GRID

POINTS 961 float
0.100000001 0.00499999989 0
0.0966666639 0.00499999989 0
0.0933333337 0.00499999989 0
0.0900000036 0.00499999989 0
0.086666666 0.00499999989 0
0.0833333358 0.00499999989 0
0.0799999982 0.00499999989 0
0.0766666681 0.00499999989 0
0.0733333305 0.00499999989 0
0.0700000003 0.00499999989 0
0.0666666701 0.00499999989 0
0.0633333325 0.00499999989 0
0.0599999987 0.00499999989 0
0.0566666685 0.00499999989 0
0.0533333346 0.00499999989 0
0.0500000007 0.00499999989 0
0.0466666669 0.00499999989 0
0.043333333 0.00499999989 0
0.0399999991 0.00499999989 0
0.0366666652 0.00499999989 0
0.0333333351 0.00499999989 0
0.0299999993 0.00499999989 0
0.0266666673 0.00499999989 0
0.0233333334 0.00499999989 0
0.0199999996 0.00499999989 0
0.0166666675 0.00499999989 0
0.0133333337 0.00499999989 0
0.00999999978 0.00499999989 0
0.00666666683 0.00499999989 0
0.00333333341 0.00499999989 0
0 0.00499999989 0
0.100000001 0.00166666671 0
0.0966666639 0.00166666671 0
0.0933333337 0.00166666671 0
0.0900000036 0.00166666671 0
0.086666666 0.00166666671 0
0.0833333358 0.00166666671 0
0.0799999982 0.00166666671 0
0.0766666681 0.00166666671 0
0.0733333305 0.00166666671 0
0.0700000003 0.00166666671 0
0.0666666701 0.00166666671 0
0.0633333325 0.00166666671 0
0.0599999987 0.00166666671 0
0.0566666685 0.00166666671 0
0.0533333346 0.00166666671 0
0.0500000007 0.00166666671 0
0.0466666669 0.00166666671 0
0.043333333 0.00166666671 0
0.0399999991 0.00166666671 0
0.0366666652 0.00166666671 0
0.0333333351 0.00166666671 0
0.0299999993 0.00166666671 0
0.0266666673 0.00166666671 0
0.0233333334 0.00166666671 0
0.0199999996 0.00166666671 0
0.0166666675 0.00166666671 0
0.0133333337 0.00166666671 0
0.00999999978 0.00166666671 0
0.00666666683 0.00166666671 0
0.00333333341 0.00166666671 0
0 0.00166666671 0
0.100000001 -0.00166666671 0
0.0966666639 -0.00166666671 0
0.0933333337 -0.00166666671 0
0.0900000036 -0.00166666671 0
0.086666666 -0.00166666671 0
0.0833333358 -0.00166666671 0
0.0799999982 -0.00166666671 0
0.0766666681 -0.00166666671 0
0.0733333305 -0.00166666671 0
0.0700000003 -0.00166666671 0
0.0666666701 -0.00166666671 0
0.0633333325 -0.00166666671 0
0.0599999987 -0.00166666671 0
0.0566666685 -0.00166666671 0
0.0533333346 -0.00166666671 0
0.0500000007 -0.00166666671 0
0.0466666669 -0.00166666671 0
0.043333333 -0.00166666671 0
0.0399999991 -0.00166666671 0
0.0366666652 -0.00166666671 0
0.0333333351 -0.00166666671 0
0.0299999993 -0.00166666671 0
0.0266666673 -0.00166666671 0
0.0233333334 -0.00166666671 0
0.0199999996 -0.00166666671 0
0.0166666675 -0.00166666671 0
0.0133333337 -0.00166666671 0
0.00999999978 -0.00166666671 0
0.00666666683 -0.00166666671 0
0.00333333341 -0.00166666671 0
0 -0.00166666671 0
0.100000001 -0.00499999989 0
0.0966666639 -0.00499999989 0
0.0933333337 -0.00499999989 0
0.0900000036 -0.00499999989 0
0.086666666 -0.00499999989 0
0.0833333358 -0.00499999989 0
0.0799999982 -0.00499999989 0
0.0766666681 -0.00499999989 0
0.0733333305 -0.00499999989 0
0.0700000003 -0.00499999989 0
0.0666666701 -0.00499999989 0
0.0633333325 -0.00499999989 0
0.0599999987 -0.00499999989 0
0.0566666685 -0.00499999989 0
0.0533333346 -0.00499999989 0
0.0500000007 -0.00499999989 0
0.0466666669 -0.00499999989 0
0.043333333 -0.00499999989 0
0.0399999991 -0.00499999989 0
0.0366666652 -0.00499999989 0
0.0333333351 -0.00499999989 0
0.0299999993 -0.00499999989 0
0.0266666673 -0.00499999989 0
0.0233333334 -0.00499999989 0
0.0199999996 -0.00499999989 0
0.0166666675 -0.00499999989 0
0.0133333337 -0.00499999989 0
0.00999999978 -0.00499999989 0
0.00666666683 -0.00499999989 0
0.00333333341 -0.00499999989 0
0 -0.00499999989 0
0.100000001 -0.00833333377 0
0.0966666639 -0.00833333377 0
0.0933333337 -0.00833333377 0
0.0900000036 -0.00833333377 0
0.086666666 -0.00833333377 0
0.0833333358 -0.00833333377 0
0.0799999982 -0.00833333377 0
0.0766666681 -0.00833333377 0
0.0733333305 -0.00833333377 0
0.0700000003 -0.00833333377 0
0.0666666701 -0.00833333377 0
0.0633333325 -0.00833333377 0
0.0599999987 -0.00833333377 0
0.0566666685 -0.00833333377 0
0.0533333346 -0.00833333377 0
0.0500000007 -0.00833333377 0
0.0466666669 -0.00833333377 0
0.043333333 -0.00833333377 0
0.0399999991 -0.00833333377 0
0.0366666652 -0.00833333377 0
0.0333333351 -0.00833333377 0
0.0299999993 -0.00833333377 0
0.0266666673 -0.00833333377 0
0.0233333334 -0.00833333377 0
0.0199999996 -0.00833333377 0
0.0166666675 -0.00833333377 0
0.0133333337 -0.00833333377 0
0.00999999978 -0.00833333377 0
0.00666666683 -0.00833333377 0
0.00333333341 -0.00833333377 0
0 -0.00833333377 0
0.100000001 -0.0116666667 0
0.0966666639 -0.0116666667 0
0.0933333337 -0.0116666667 0
0.0900000036 -0.0116666667 0
0.086666666 -0.0116666667 0
0.0833333358 -0.0116666667 0
0.0799999982 -0.0116666667 0
0.0766666681 -0.0116666667 0
0.0733333305 -0.0116666667 0
0.0700000003 -0.0116666667 0
0.0666666701 -0.0116666667 0
0.0633333325 -0.0116666667 0
0.0599999987 -0.0116666667 0
0.0566666685 -0.0116666667 0
0.0533333346 -0.0116666667 0
0.0500000007 -0.0116666667 0
0.0466666669 -0.0116666667 0
0.043333333 -0.0116666667 0
0.0399999991 -0.0116666667 0
0.0366666652 -0.0116666667 0
0.0333333351 -0.0116666667 0
0.0299999993 -0.0116666667 0
0.0266666673 -0.0116666667 0
0.0233333334 -0.0116666667 0
0.0199999996 -0.0116666667 0
0.0166666675 -0.0116666667 0
0.0133333337 -0.0116666667 0
0.00999999978 -0.0116666667 0
0.00666666683 -0.0116666667 0
0.00333333341 -0.0116666667 0
0 -0.0116666667 0
0.100000001 -0.0149999997 0
0.0966666639 -0.0149999997 0
0.0933333337 -0.0149999997 0
0.0900000036 -0.0149999997 0
0.086666666 -0.0149999997 0
0.0833333358 -0.0149999997 0
0.0799999982 -0.0149999997 0
0.0766666681 -0.0149999997 0
0.0733333305 -0.0149999997 0
0.0700000003 -0.0149999997 0
0.0666666701 -0.0149999997 0
0.0633333325 -0.0149999997 0
0.0599999987 -0.0149999997 0
0.0566666685 -0.0149999997 0
0.0533333346 -0.0149999997 0
0.0500000007 -0.0149999997 0
0.0466666669 -0.0149999997 0
0.043333333 -0.0149999997 0
0.0399999991 -0.0149999997 0
0.0366666652 -0.0149999997 0
0.0333333351 -0.0149999997 0
0.0299999993 -0.0149999997 0
0.0266666673 -0.0149999997 0
0.0233333334 -0.0149999997 0
0.0199999996 -0.0149999997 0
0.0166666675 -0.0149999997 0
0.0133333337 -0.0149999997 0
0.00999999978 -0.0149999997 0
0.00666666683 -0.0149999997 0
0.00333333341 -0.0149999997 0
0 -0.0149999997 0
0.100000001 -0.0183333326 0
0.0966666639 -0.0183333326 0
0.0933333337 -0.0183333326 0
0.0900000036 -0.0183333326 0
0.086666666 -0.0183333326 0
0.0833333358 -0.0183333326 0
0.0799999982 -0.0183333326 0
0.0766666681 -0.0183333326 0
0.0733333305 -0.0183333326 0
0.0700000003 -0.0183333326 0
0.0666666701 -0.0183333326 0
0.0633333325 -0.0183333326 0
0.0599999987 -0.0183333326 0
0.0566666685 -0.0183333326 0
0.0533333346 -0.0183333326 0
0.0500000007 -0.0183333326 0
0.0466666669 -0.0183333326 0
0.043333333 -0.0183333326 0
0.0399999991 -0.0183333326 0
0.0366666652 -0.0183333326 0
0.0333333351 -0.0183333326 0
0.0299999993 -0.0183333326 0
0.0266666673 -0.0183333326 0
0.0233333334 -0.0183333326 0
0.0199999996 -0.0183333326 0
0.0166666675 -0.0183333326 0
0.0133333337 -0.0183333326 0
0.00999999978 -0.0183333326 0
0.00666666683 -0.0183333326 0
0.00333333341 -0.0183333326 0
0 -0.0183333326 0
0.100000001 -0.0216666665 0
0.0966666639 -0.0216666665 0
0.0933333337 -0.0216666665 0
0.0900000036 -0.0216666665 0
0.086666666 -0.0216666665 0
0.0833333358 -0.0216666665 0
0.0799999982 -0.0216666665 0
0.0766666681 -0.0216666665 0
0.0733333305 -0.0216666665 0
0.0700000003 -0.0216666665 0
0.0666666701 -0.0216666665 0
0.0633333325 -0.0216666665 0
0.0599999987 -0.0216666665 0
0.0566666685 -0.0216666665 0
0.0533333346 -0.0216666665 0
0.0500000007 -0.0216666665 0
0.0466666669 -0.0216666665 0
0.043333333 -0.0216666665 0
0.0399999991 -0.0216666665 0
0.0366666652 -0.0216666665 0
0.0333333351 -0.0216666665 0
0.0299999993 -0.0216666665 0
0.0266666673 -0.0216666665 0
0.0233333334 -0.0216666665 0
0.0199999996 -0.0216666665 0
0.0166666675 -0.0216666665 0
0.0133333337 -0.0216666665 0
0.00999999978 -0.0216666665 0
0.00666666683 -0.0216666665 0
0.00333333341 -0.0216666665 0
0 -0.0216666665 0
0.100000001 -0.0250000004 0
0.0966666639 -0.0250000004 0
0.0933333337 -0.0250000004 0
0.0900000036 -0.0250000004 0
0.086666666 -0.0250000004 0
0.0833333358 -0.0250000004 0
0.0799999982 -0.0250000004 0
0.0766666681 -0.0250000004 0
0.0733333305 -0.0250000004 0
0.0700000003 -0.0250000004 0
0.0666666701 -0.0250000004 0
0.0633333325 -0.0250000004 0
0.0599999987 -0.0250000004 0
0.0566666685 -0.0250000004 0
0.0533333346 -0.0250000004 0
0.0500000007 -0.0250000004 0
0.0466666669 -0.0250000004 0
0.043333333 -0.0250000004 0
0.0399999991 -0.0250000004 0
0.0366666652 -0.0250000004 0
0.0333333351 -0.0250000004 0
0.0299999993 -0.0250000004 0
0.0266666673 -0.0250000004 0
0.0233333334 -0.0250000004 0
0.0199999996 -0.0250000004 0
0.0166666675 -0.0250000004 0
0.0133333337 -0.0250000004 0
0.00999999978 -0.0250000004 0
0.00666666683 -0.0250000004 0
0.00333333341 -0.0250000004 0
0 -0.0250000004 0
0.100000001 -0.0283333343 0
0.0966666639 -0.0283333343 0
0.0933333337 -0.0283333343 0
0.0900000036 -0.0283333343 0
0.086666666 -0.0283333343 0
0.0833333358 -0.0283333343 0
0.0799999982 -0.0283333343 0
0.0766666681 -0.0283333343 0
0.0733333305 -0.0283333343 0
0.0700000003 -0.0283333343 0
0.0666666701 -0.0283333343 0
0.0633333325 -0.0283333343 0
0.0599999987 -0.0283333343 0
0.0566666685 -0.0283333343 0
0.0533333346 -0.0283333343 0
0.0500000007 -0.0283333343 0
0.0466666669 -0.0283333343 0
0.043333333 -0.0283333343 0
0.0399999991 -0.0283333343 0
0.0366666652 -0.0283333343 0
0.0333333351 -0.0283333343 0
0.0299999993 -0.0283333343 0
0.0266666673 -0.0283333343 0
0.0233333334 -0.0283333343 0
0.0199999996 -0.0283333343 0
0.0166666675 -0.0283333343 0
0.0133333337 -0.0283333343 0
0.00999999978 -0.0283333343 0
0.00666666683 -0.0283333343 0
0.00333333341 -0.0283333343 0
0 -0.0283333343 0
0.100000001 -0.0316666663 0
[...]
POINT_DATA 961
SCALARS Temp float 1
LOOKUP_TABLE default
341.0846585343399
309.95246394626207
285.19866520439655
266.39016884149
252.7537088548256
243.32813069406458
237.11878189753898
233.21943111890138
230.88377389735987
229.54812055615014
228.81807826948915
228.43625827515947
228.24516556792443
228.1542383454985
228.11489422820048
228.10402684420194
228.1148942260172
228.15423833969157
228.24516570255955
228.43625856230386
228.81807763886033
229.54812101302426
230.88377568375338
233.21943083177632
237.11878687578493
243.32812581778435
252.75371392449915
266.39015853328516
285.19867049727594
309.95250684191905
341.08465837994953
309.95252254653235
277.6917362743798
252.04019428437843
232.54921734763587
218.4176203564275
208.64953263505294
202.21434324737604
198.1730262508851
195.7522398307501
194.36784780244133
193.6111328651178
193.2153448433677
193.01725229454814
192.922990101334
192.8822013388673
192.87093464782924
192.8822013365672
192.92299009521503
193.0172524338906
193.215345140525
193.6111322103774
194.36784827381155
195.75224167782636
198.1730259442162
202.21434838806803
208.64952754085957
218.4176255189737
232.5492063705647
252.0401993087179
277.69176817981656
309.95251027998137
285.1986747054286
252.04016813292435
225.67378104295165
205.63860913739362
191.11152917662855
181.06931499732605
174.45295679148973
170.29746125190246
167.8080160447262
166.38419703577165
165.60583722482085
165.19867708897388
164.99486669928527
164.897871532624
164.85589557452195
164.8443001652139
164.85589557205213
164.89787152604984
164.99486684202307
165.19867739330564
165.60583654840312
166.3841975146399
167.80801793229125
170.2974609125771
174.4529620289569
181.0693096604676
191.1115342616302
205.63859734693196
225.67378427694726
252.0401990487385
285.19867228431457
266.390160014912
232.54917183422248
205.63859289844058
185.18839354540694
170.3590274427466
160.1067325695416
153.3511136698023
149.10755628066934
146.56496315586458
145.1105049260524
144.31525556599507
143.89918409955348
143.6908738919157
143.59171896039803
143.54880141040084
143.5369447031324
143.5488014077255
143.59171895327458
143.69087403690597
143.8991844086142
144.315254870779
145.11050540712256
146.5649650678959
149.10755590334216
153.35111895927085
160.10672700867062
170.35903242114355
185.18838108011587
205.63859577803342
232.5492044014779
266.39015869194856
252.75371493382664
218.41759019803234
191.11152978977714
170.35904536608365
155.3089028321299
144.90267397713427
138.04463286754932
133.7360395499591
131.15401793570877
129.67671992891337
128.8688166114813
128.4460336774889
128.23431653808413
128.13351799195672
128.08988068865804
128.07782369662084
128.08988068576556
128.13351798425765
128.23431668444093
128.44603398941575
128.86881590077513
129.67672040911333
131.1540198615951
133.73603913773172
138.0446381866317
144.90266824716196
155.3089077538217
170.35903258668162
191.11153280444222
218.41762361678647
252.7537141529057
243.32812849228822
208.6494936398436
181.06930710737083
160.10674220611872
144.90266548086194
134.3886934614288
127.45864719161084
123.10410717606459
120.49408083086304
119.00046767124853
118.18347091252427
117.75583499279091
117.54163885265802
117.43963706756253
117.3954700793154
117.38326521422108
117.39547007621786
117.43963705932683
117.54163899977212
117.75583530633202
118.18347018982185
119.00046814948215
120.49408276475722
123.1041067373857
127.45865253263615
134.38868762433597
144.90267040635172
160.10672929716344
181.06931025368803
208.6495276131089
243.3281279658012
237.11878731184277
202.2143119524384
174.45295713933456
153.35113195076949
138.0446330979555
127.45865609722546
120.48024516108536
116.09466943855492
113.46561037610913
111.96083611968224
111.13757557453476
110.70657288158465
110.49064446763539
110.38779598075095
110.34325400184042
110.3309440600073
110.34325399856803
110.38779597206408
110.49064461513834
110.70657319600033
111.13757484316001
111.9608365961209
113.46561231527829
116.09466898304797
120.48025052172075
127.45865020181958
138.04463805236287
153.3511189852192
174.4529603886316
202.21434627834176
237.11878692928596
233.21943197425318
198.172990100879
170.29745679249385
149.10756978776217
133.73603490329057
123.10411121721648
116.09466450933863
111.68904767310734
109.04761387300407
107.53552943437666
106.70813447456021
106.27489168011334
106.0578012974997
105.95438037816717
105.90958315258982
105.89720138920833
105.90958314918126
105.95438036913563
106.05780144519741
106.27489199501841
106.70813373735496
107.5355299097062
109.04761581621243
111.6890472086359
116.09466988732515
123.10410529356945
133.7360398890379
149.10755679936526
170.2974601138639
198.1730246479432
233.21943167750942
230.88377641726095
195.75220532535835
167.80801338212268
146.5649785755247
131.15401521264465
120.49408685889104
113.46560743394052
109.04761588672002
106.3984836620424
104.88181480389437
104.05180495240607
103.61713283369116
103.3992943882581
103.2955017367887
103.25053751531425
103.23810854728566
103.25053751180877
103.29550172751726
103.39929453606244
103.61713314890406
104.05180421156003
104.88181527879509
106.3984856085278
109.04761541841353
113.46561282590078
120.4940809231619
131.15402022398263
146.56496557958732
167.80801675118028
195.75224000695695
230.88377617260107
229.5481209390494
194.36781103508835
166.38419210560383
145.11051807262064
129.67671488619797
119.00047137992853
111.96083083429765
107.53552910547776
104.88181245196657
103.3623898652125
102.53079489953217
102.09524806490329
101.8769473749808
101.77292285912418
101.7278536327975
101.71539483663477
101.7278536292287
101.7729228497002
101.87694752285623
102.09524838033727
102.53079415657554
103.3623903401346
104.88181440103129
107.53552863608867
111.96083623646696
119.00046543994725
129.67671991573354
145.11050507557226
166.38419550467881
194.36784579561342
229.54812072562535
228.81807797842728
193.61109537314866
165.60583158087914
144.31526800653714
128.86881084526323
118.18347390426266
111.13756956361514
106.7081334238899
104.05180187568115
102.5307941761455
101.6982778946258
101.26221748694665
101.04364259353102
100.93947915715239
100.89434647685461
100.88186956146855
100.894346473248
100.93947914764014
101.04364274146205
101.26221780255
101.69827715053381
102.53079465129483
104.05180382664166
106.70813295460852
111.13757497263863
118.18346796337
128.8688158866049
144.31525501056637
165.60583499795885
193.6111301781818
228.81807778321857
228.43625866646312
193.21530804499696
165.19867217494155
143.89919729810416
128.44602867820728
117.75583876830794
110.70656765927035
106.27489142651278
103.61713055656898
102.09524814449729
101.26221829147131
100.8258685652055
100.60713753092249
100.5028941595466
100.45772464043793
100.44523714860796
100.45772463681071
100.5028941499881
100.60713767889851
100.82586888093681
101.26221754681343
102.0952486199126
103.61713250882029
106.27489095769103
110.70657307257062
117.75583282766756
128.4460337266756
143.89918430356903
165.19867560231535
193.21534287412018
228.43625848149418
228.24516584661637
193.0172153725386
164.994861666252
143.69088697497955
128.2343114198336
117.54164251207041
110.49063912778453
106.05780092820241
103.39929199517611
101.87694733944755
101.04364328320503
100.6071374157648
100.38832118566297
100.28403373359436
100.238843714574
100.22635030486803
100.2388437109366
100.28403372401405
100.38832133367339
100.6071377315873
101.0436425382874
101.87694781508569
103.39929394824328
106.05780045982937
110.49064454358391
117.54163657192268
128.23431647234517
143.69087398160454
164.9948650992388
193.01725021416317
228.24516566717224
228.1542385010988
192.92295304841983
164.8978663687955
143.59173191269974
128.13351274002414
117.43964059380316
110.38779050644028
105.95437987494492
103.29549920942993
101.77292268960542
100.93947971291291
100.50289391028136
100.28403359946623
100.17972310484534
100.13452227601573
100.12202572934271
100.13452227237387
100.17972309525639
100.28403374750087
100.50289422616385
100.93947896788804
101.77292316540027
103.29550116297615
105.95437940690013
110.38779592361071
117.43963465407595
128.13351779470113
143.5917189201082
164.89786980470157
192.92298789623996
228.15423832451188
228.11489439864198
192.88216429991294
164.85589042676787
143.54881438044697
128.0898754544731
117.39547362448772
110.34324854658614
105.90958266914801
103.25053500790433
101.72785348357
100.89434705306961
100.45772441161424
100.2388436009205
100.13452229651277
100.08931635906514
100.07681832333475
100.08931635542181
100.13452228692131
100.23884374896997
100.45772472753184
100.89434630800974
101.72785395946107
103.2505369617074
105.90958220131174
110.34325396445232
117.39546768505915
128.0898805102386
143.54880138835662
164.85589386411777
192.88219915060137
228.1148942234714
228.10402702842
192.87089762278313
164.8442950323021
143.53695768880164
128.0778184783374
117.38326877585777
110.3309386214362
105.89720092279096
103.2381060570448
101.71539470473739
100.88187015509986
100.44523693721969
100.2263502086717
100.12202576730938
100.07681834080681
100.06431986990391
100.07681833716332
100.12202575771789
100.22635035672756
100.44523725315258
100.88186941004132
101.71539518067803
103.23810801095992
105.89720045507838
110.33094403959659
117.38326283665299
128.07782353459197
143.5369446970795
164.8442984703159
192.870932474548
228.1040268539236
228.11489440496788
192.8821643065098
164.85589043366588
143.54881438765878
128.08987546198819
117.39547363227408
110.34324855459595
105.90958267732793
103.25053501620386
101.72785349194716
100.89434706149316
100.45772442006327
100.23884360938231
100.13452230498031
100.08931636753469
100.07681833180476
100.08931636389147
100.1345222953898
100.23884375743607
100.45772473599348
100.89434631646336
101.72785396790074
103.25053697012395
105.90958220969186
110.34325397277748
117.39546769330515
128.08988051837525
143.54880139634855
164.85589387192533
192.88219915818178
228.1148942307814
228.15423851618627
192.9229530641656
164.8978663852928
143.59173192999194
128.1335127580886
117.43964061255531
110.3877905257544
105.95437989468081
103.29549922945681
101.77292270981685
100.93947973323162
100.50289393065687
100.28403361986892
100.17972312525944
100.13452229643356
100.12202574976101
100.13452229279092
100.17972311567058
100.28403376790972
100.50289424656249
100.9394789882683
101.7729231857481
103.29550118326978
105.95437942710751
110.38779594368705
117.43963467396226
128.13351781432436
143.5917189393823
164.8978698235304
192.92298791452097
228.15423834214005
228.2451658788009
193.0172154061442
164.99486170150263
143.69088701197768
128.2343114585216
117.54164255224553
110.4906391691526
106.05780097044425
103.39929203800294
101.87694738263212
101.04364332658851
100.607137459248
100.38832122919037
100.28403377713813
100.23884375812167
100.2263503484147
100.23884375448004
100.2840337675519
100.38832137720092
100.60713777509527
101.04364258175946
101.87694785849355
103.39929399154208
106.05780050295182
110.49064458643518
117.54163661437701
128.2343165142454
143.69087402276503
164.99486513945226
193.0172502532086
228.24516570482362
228.43625873981063
193.21530812155694
165.19867225516953
143.8991973821696
128.44602876591506
117.75583885914791
110.70656775255328
106.27489152152637
103.61713065269656
102.09524824127507
101.26221838859091
100.82586866248424
100.60713762826448
100.50289425690721
100.45772473779945
100.44523724596438
100.45772473415958
100.5028942473256
100.60713777621561
100.82586897821568
101.26221764402023
102.09524871698896
103.61713260567157
106.27489105417254
110.70657316847493
117.7558329227159
128.4460338205152
143.89918439578057
165.1986756924271
193.21534296162793
228.43625856588224
228.81807842289354
193.6110958349833
165.60583205903276
144.31526849940738
128.86881135063675
118.1834744195258
111.13757008611354
106.70813395126865
104.0518024060907
102.5307947082859
101.69827842767292
101.26221802042657
101.04364312719635
100.9394796908855
100.89434701060402
100.88187009521118
100.89434700696728
100.93947968131162
101.04364327503883
101.2622183359427
101.69827768358094
102.53079518371797
104.05180435798594
106.70813348416971
111.13757549938495
118.18346848587429
128.86881640300393
144.31525551856404
165.60583549488155
193.61113066108422
228.81807824902734
229.54812064590328
194.36781073355772
166.38419180178542
145.1105177708782
129.67671458867395
119.00047108684866
111.96083054473756
107.53552881815371
104.88181216576227
103.36238957938495
102.53079461369366
102.09524777890981
101.87694708881814
101.7729225728293
101.72785334641642
101.71539455020681
101.72785334278502
101.7729225632688
101.87694723647023
102.095248094045
102.53079387045427
103.36239005430708
104.88181411568792
107.53552835151677
111.9608359530907
119.00046515837855
129.67671963683293
145.11050480050577
166.38419523494545
194.3678455330121
229.54812047214577
230.8837778371209
195.75220680173533
167.80801491319306
146.56498015636873
131.15401683509916
120.49408851294977
113.4656091097365
109.04761757606057
106.39848535903765
104.88181650480703
104.05180665511807
103.61713453712535
103.39929609192637
103.29550344049792
103.2505392189996
103.23811025092448
103.25053921537695
103.29550343095961
103.39929623925866
103.61713485161438
104.05180591333708
104.88181697884671
106.39848730552295
109.04761711023225
113.46561450935445
120.49408259373601
131.15402187567955
146.56496720493882
167.808018341461
195.75224155256984
230.88377766356484
233.21943105301466
198.17298915571567
170.29745584599763
149.10756885376642
133.7360339857095
123.10411031307409
116.09466361311915
111.68904677994685
109.04761297990156
107.53552854003595
106.70813357874545
106.27489078306836
106.05780039959092
105.95437947971833
105.90958225383544
105.8972004903025
105.90958225022672
105.95437947021537
106.05780054640796
106.27489109650539
106.70813283935753
107.53552901261314
109.0476149206314
111.68904631547528
116.09466899789003
123.10410440968776
133.73603901323895
149.10755593511286
170.29745926576257
198.1730238217555
233.21943087982055
237.11879271873357
202.21431757594374
174.4529629726084
153.3511379694457
138.0446392625006
127.45866236341006
120.48025149058456
116.0946758037769
113.46561675980323
111.96084251213549
111.13758197074911
110.7065792792135
110.49065086568663
110.38780237885672
110.34326039988088
110.33095045792999
110.34326039629306
110.38780236940768
110.49065101170635
110.70657959100751
111.13758123512632
111.9608429823902
113.4656186913145
116.09467534148537
120.48025685121986
127.4586564858992
138.04464426855478
153.35112510497518
174.4529663782598
202.21435210077314
237.11879254616287
243.32813021777932
208.64949547120517
181.0693090958017
160.10674435515824
144.902667752694
134.38869580713506
127.45864957248334
123.1041095697775
120.49408322690407
119.00047006565612
118.18347330445508
117.75583738260595
117.54164124100174
117.43963945499844
117.39547246623404
117.38326760085417
117.39547246267689
117.4396394456286
117.54164138583666
117.75583769193868
118.18347257451127
119.00047053237843
120.49408514428279
123.10410911083791
127.45865489561366
134.38868997004218
144.90267272500262
160.10673157619115
181.0693124790982
208.6495297716876
243.32813004622878
252.75370806461888
218.4175831762564
191.11152280724033
170.35903846374174
155.3088959658128
144.90266708983887
138.04462593821455
133.73603258011119
131.15401093427707
129.67671290558917
128.86880957418916
128.44602663186578
128.2343094877785
128.13351093916506
128.0898736346328
128.07781664206567
128.08987363111885
128.13351092990732
128.23430963092326
128.4460269376607
128.8688088524573
129.67671336716566
131.15401283092112
133.73603212610166
138.04463120564992
144.90266131304756
155.30890088750456
170.3590258135147
191.1115261567653
218.41761713688837
252.75370789465515
266.39016787541044
232.54918029310178
205.63860213186604
185.18840342734083
170.35903760848024
160.10674283816203
153.35112397546365
149.10756659596925
146.56497347031996
145.11051523656917
144.31526587253697
143.89919440307273
143.69088419344496
143.5917292607328
143.54881171005053
143.53695500236213
143.54881170659496
143.59172925162756
143.6908843342729
143.89919470398715
144.3152651621933
145.11051569096318
146.56497533784412
149.1075661488986
153.3511291638524
160.10673714730294
170.3590424577016
185.18839096204985
205.63860543273483
232.54921376293856
266.3901677077902
285.1986645087382
252.04015805559058
225.67377273534768
205.63860110555285
191.11152092801692
181.06930655800105
174.45294820910917
170.29745257171263
167.80800730108064
166.38418825287732
165.60582841875146
165.19866826983818
164.99485787311485
164.89786270284156
164.8558867429901
164.84429133293273
164.8558867396107
164.89786269393576
164.99485801088957
165.19866856428607
165.60582772356435
166.38418869766033
167.80800912943542
170.29745213399215
174.4529532902219
181.0693009841627
191.111525678158
205.6385888938137
225.67377596934242
252.04019084950878
285.1986643444061
309.9525354292469
277.69176295176277
252.0402236998092
232.54924629187698
218.4176493278258
208.6495616625454
202.21437232614207
198.1730553627686
195.75226896068028
194.36787694082065
193.61116200680326
193.21537398599716
193.01728143721837
192.92301924378185
192.8822304810339
192.87096378963417
192.88223047775023
192.92301923512784
193.01728157112078
193.21537427220673
193.61116133099466
194.3678773732612
195.7522707385204
198.17305493712414
202.21437726790728
208.64955624113415
218.41765394849295
232.54923441222138
252.04022684604053
277.69179485719303
309.95253526930156
341.0846584516579
309.95247672183416
285.1986675138578
266.3901699791028
252.75370941287053
243.32813097928727
237.11878202823533
233.21943115744554
230.88377387999884
229.54812050528957
228.81807819911123
228.43625819382092
228.24516548067794
228.154238255202
228.11489413640035
228.1040267517028
228.114894133233
228.15423824685448
228.2451656098462
228.43625846992455
228.81807754713964
229.54812092249665
230.88377559528854
233.2194307467702
237.11878679649539
243.3281257480698
252.7537138715857
266.3901585155521
285.19867054995115
309.95250751088474
341.08465829728607
