# vtk DataFile Version 2.0
Unstructured Grid Example
ASCII
DATASET UNSTRUCTURED_GRID

POINTS 961.0 float
0.100000001 0.00499999989 0
0.0966666639 0.00499999989 0
0.0933333337 0.00499999989 0
0.0900000036 0.00499999989 0
0.086666666 0.00499999989 0
0.0833333358 0.00499999989 0
0.0799999982 0.00499999989 0
0.0766666681 0.00499999989 0
0.0733333305 0.00499999989 0
0.0700000003 0.00499999989 0
0.0666666701 0.00499999989 0
0.0633333325 0.00499999989 0
0.0599999987 0.00499999989 0
0.0566666685 0.00499999989 0
0.0533333346 0.00499999989 0
0.0500000007 0.00499999989 0
0.0466666669 0.00499999989 0
0.043333333 0.00499999989 0
0.0399999991 0.00499999989 0
0.0366666652 0.00499999989 0
0.0333333351 0.00499999989 0
0.0299999993 0.00499999989 0
0.0266666673 0.00499999989 0
0.0233333334 0.00499999989 0
0.0199999996 0.00499999989 0
0.0166666675 0.00499999989 0
0.0133333337 0.00499999989 0
0.00999999978 0.00499999989 0
0.00666666683 0.00499999989 0
0.00333333341 0.00499999989 0
0.0 0.00499999989 0
0.100000001 0.00166666671 0
0.0966666639 0.00166666671 0
0.0933333337 0.00166666671 0
0.0900000036 0.00166666671 0
0.086666666 0.00166666671 0
0.0833333358 0.00166666671 0
0.0799999982 0.00166666671 0
0.0766666681 0.00166666671 0
0.0733333305 0.00166666671 0
0.0700000003 0.00166666671 0
0.0666666701 0.00166666671 0
0.0633333325 0.00166666671 0
0.0599999987 0.00166666671 0
0.0566666685 0.00166666671 0
0.0533333346 0.00166666671 0
0.0500000007 0.00166666671 0
0.0466666669 0.00166666671 0
0.043333333 0.00166666671 0
0.0399999991 0.00166666671 0
0.0366666652 0.00166666671 0
0.0333333351 0.00166666671 0
0.0299999993 0.00166666671 0
0.0266666673 0.00166666671 0
0.0233333334 0.00166666671 0
0.0199999996 0.00166666671 0
0.0166666675 0.00166666671 0
0.0133333337 0.00166666671 0
0.00999999978 0.00166666671 0
0.00666666683 0.00166666671 0
0.00333333341 0.00166666671 0
0.0 0.00166666671 0
0.100000001 -0.00166666671 0
0.0966666639 -0.00166666671 0
0.0933333337 -0.00166666671 0
0.0900000036 -0.00166666671 0
0.086666666 -0.00166666671 0
0.0833333358 -0.00166666671 0
0.0799999982 -0.00166666671 0
0.0766666681 -0.00166666671 0
0.0733333305 -0.00166666671 0
0.0700000003 -0.00166666671 0
0.0666666701 -0.00166666671 0
0.0633333325 -0.00166666671 0
0.0599999987 -0.00166666671 0
0.0566666685 -0.00166666671 0
0.0533333346 -0.00166666671 0
0.0500000007 -0.00166666671 0
0.0466666669 -0.00166666671 0
0.043333333 -0.00166666671 0
0.0399999991 -0.00166666671 0
0.0366666652 -0.00166666671 0
0.0333333351 -0.00166666671 0
0.0299999993 -0.00166666671 0
0.0266666673 -0.00166666671 0
0.0233333334 -0.00166666671 0
0.0199999996 -0.00166666671 0
0.0166666675 -0.00166666671 0
0.0133333337 -0.00166666671 0
0.00999999978 -0.00166666671 0
0.00666666683 -0.00166666671 0
0.00333333341 -0.00166666671 0
0.0 -0.00166666671 0
0.100000001 -0.00499999989 0
0.0966666639 -0.00499999989 0
0.0933333337 -0.00499999989 0
0.0900000036 -0.00499999989 0
0.086666666 -0.00499999989 0
0.0833333358 -0.00499999989 0
0.0799999982 -0.00499999989 0
0.0766666681 -0.00499999989 0
0.0733333305 -0.00499999989 0
0.0700000003 -0.00499999989 0
0.0666666701 -0.00499999989 0
0.0633333325 -0.00499999989 0
0.0599999987 -0.00499999989 0
0.0566666685 -0.00499999989 0
0.0533333346 -0.00499999989 0
0.0500000007 -0.00499999989 0
0.0466666669 -0.00499999989 0
0.043333333 -0.00499999989 0
0.0399999991 -0.00499999989 0
0.0366666652 -0.00499999989 0
0.0333333351 -0.00499999989 0
0.0299999993 -0.00499999989 0
0.0266666673 -0.00499999989 0
0.0233333334 -0.00499999989 0
0.0199999996 -0.00499999989 0
0.0166666675 -0.00499999989 0
0.0133333337 -0.00499999989 0
0.00999999978 -0.00499999989 0
0.00666666683 -0.00499999989 0
0.00333333341 -0.00499999989 0
0.0 -0.00499999989 0
0.100000001 -0.00833333377 0
0.0966666639 -0.00833333377 0
0.0933333337 -0.00833333377 0
0.0900000036 -0.00833333377 0
0.086666666 -0.00833333377 0
0.0833333358 -0.00833333377 0
0.0799999982 -0.00833333377 0
0.0766666681 -0.00833333377 0
0.0733333305 -0.00833333377 0
0.0700000003 -0.00833333377 0
0.0666666701 -0.00833333377 0
0.0633333325 -0.00833333377 0
0.0599999987 -0.00833333377 0
0.0566666685 -0.00833333377 0
0.0533333346 -0.00833333377 0
0.0500000007 -0.00833333377 0
0.0466666669 -0.00833333377 0
0.043333333 -0.00833333377 0
0.0399999991 -0.00833333377 0
0.0366666652 -0.00833333377 0
0.0333333351 -0.00833333377 0
0.0299999993 -0.00833333377 0
0.0266666673 -0.00833333377 0
0.0233333334 -0.00833333377 0
0.0199999996 -0.00833333377 0
0.0166666675 -0.00833333377 0
0.0133333337 -0.00833333377 0
0.00999999978 -0.00833333377 0
0.00666666683 -0.00833333377 0
0.00333333341 -0.00833333377 0
0.0 -0.00833333377 0
0.100000001 -0.0116666667 0
0.0966666639 -0.0116666667 0
0.0933333337 -0.0116666667 0
0.0900000036 -0.0116666667 0
0.086666666 -0.0116666667 0
0.0833333358 -0.0116666667 0
0.0799999982 -0.0116666667 0
0.0766666681 -0.0116666667 0
0.0733333305 -0.0116666667 0
0.0700000003 -0.0116666667 0
0.0666666701 -0.0116666667 0
0.0633333325 -0.0116666667 0
0.0599999987 -0.0116666667 0
0.0566666685 -0.0116666667 0
0.0533333346 -0.0116666667 0
0.0500000007 -0.0116666667 0
0.0466666669 -0.0116666667 0
0.043333333 -0.0116666667 0
0.0399999991 -0.0116666667 0
0.0366666652 -0.0116666667 0
0.0333333351 -0.0116666667 0
0.0299999993 -0.0116666667 0
0.0266666673 -0.0116666667 0
0.0233333334 -0.0116666667 0
0.0199999996 -0.0116666667 0
0.0166666675 -0.0116666667 0
0.0133333337 -0.0116666667 0
0.00999999978 -0.0116666667 0
0.00666666683 -0.0116666667 0
0.00333333341 -0.0116666667 0
0.0 -0.0116666667 0
0.100000001 -0.0149999997 0
0.0966666639 -0.0149999997 0
0.0933333337 -0.0149999997 0
0.0900000036 -0.0149999997 0
0.086666666 -0.0149999997 0
0.0833333358 -0.0149999997 0
0.0799999982 -0.0149999997 0
0.0766666681 -0.0149999997 0
0.0733333305 -0.0149999997 0
0.0700000003 -0.0149999997 0
0.0666666701 -0.0149999997 0
0.0633333325 -0.0149999997 0
0.0599999987 -0.0149999997 0
0.0566666685 -0.0149999997 0
0.0533333346 -0.0149999997 0
0.0500000007 -0.0149999997 0
0.0466666669 -0.0149999997 0
0.043333333 -0.0149999997 0
0.0399999991 -0.0149999997 0
0.0366666652 -0.0149999997 0
0.0333333351 -0.0149999997 0
0.0299999993 -0.0149999997 0
0.0266666673 -0.0149999997 0
0.0233333334 -0.0149999997 0
0.0199999996 -0.0149999997 0
0.0166666675 -0.0149999997 0
0.0133333337 -0.0149999997 0
0.00999999978 -0.0149999997 0
0.00666666683 -0.0149999997 0
0.00333333341 -0.0149999997 0
0.0 -0.0149999997 0
0.100000001 -0.0183333326 0
0.0966666639 -0.0183333326 0
0.0933333337 -0.0183333326 0
0.0900000036 -0.0183333326 0
0.086666666 -0.0183333326 0
0.0833333358 -0.0183333326 0
0.0799999982 -0.0183333326 0
0.0766666681 -0.0183333326 0
0.0733333305 -0.0183333326 0
0.0700000003 -0.0183333326 0
0.0666666701 -0.0183333326 0
0.0633333325 -0.0183333326 0
0.0599999987 -0.0183333326 0
0.0566666685 -0.0183333326 0
0.0533333346 -0.0183333326 0
0.0500000007 -0.0183333326 0
0.0466666669 -0.0183333326 0
0.043333333 -0.0183333326 0
0.0399999991 -0.0183333326 0
0.0366666652 -0.0183333326 0
0.0333333351 -0.0183333326 0
0.0299999993 -0.0183333326 0
0.0266666673 -0.0183333326 0
0.0233333334 -0.0183333326 0
0.0199999996 -0.0183333326 0
0.0166666675 -0.0183333326 0
0.0133333337 -0.0183333326 0
0.00999999978 -0.0183333326 0
0.00666666683 -0.0183333326 0
0.00333333341 -0.0183333326 0
0.0 -0.0183333326 0
0.100000001 -0.0216666665 0
0.0966666639 -0.0216666665 0
0.0933333337 -0.0216666665 0
0.0900000036 -0.0216666665 0
0.086666666 -0.0216666665 0
0.0833333358 -0.0216666665 0
0.0799999982 -0.0216666665 0
0.0766666681 -0.0216666665 0
0.0733333305 -0.0216666665 0
0.0700000003 -0.0216666665 0
0.0666666701 -0.0216666665 0
0.0633333325 -0.0216666665 0
0.0599999987 -0.0216666665 0
0.0566666685 -0.0216666665 0
0.0533333346 -0.0216666665 0
0.0500000007 -0.0216666665 0
0.0466666669 -0.0216666665 0
0.043333333 -0.0216666665 0
0.0399999991 -0.0216666665 0
0.0366666652 -0.0216666665 0
0.0333333351 -0.0216666665 0
0.0299999993 -0.0216666665 0
0.0266666673 -0.0216666665 0
0.0233333334 -0.0216666665 0
0.0199999996 -0.0216666665 0
0.0166666675 -0.0216666665 0
0.0133333337 -0.0216666665 0
0.00999999978 -0.0216666665 0
0.00666666683 -0.0216666665 0
0.00333333341 -0.0216666665 0
0.0 -0.0216666665 0
0.100000001 -0.0250000004 0
0.0966666639 -0.0250000004 0
0.0933333337 -0.0250000004 0
0.0900000036 -0.0250000004 0
0.086666666 -0.0250000004 0
0.0833333358 -0.0250000004 0
0.0799999982 -0.0250000004 0
0.0766666681 -0.0250000004 0
0.0733333305 -0.0250000004 0
0.0700000003 -0.0250000004 0
0.0666666701 -0.0250000004 0
0.0633333325 -0.0250000004 0
0.0599999987 -0.0250000004 0
0.0566666685 -0.0250000004 0
0.0533333346 -0.0250000004 0
0.0500000007 -0.0250000004 0
0.0466666669 -0.0250000004 0
0.043333333 -0.0250000004 0
0.0399999991 -0.0250000004 0
0.0366666652 -0.0250000004 0
0.0333333351 -0.0250000004 0
0.0299999993 -0.0250000004 0
0.0266666673 -0.0250000004 0
0.0233333334 -0.0250000004 0
0.0199999996 -0.0250000004 0
0.0166666675 -0.0250000004 0
0.0133333337 -0.0250000004 0
0.00999999978 -0.0250000004 0
0.00666666683 -0.0250000004 0
0.00333333341 -0.0250000004 0
0.0 -0.0250000004 0
0.100000001 -0.0283333343 0
0.0966666639 -0.0283333343 0
0.0933333337 -0.0283333343 0
0.0900000036 -0.0283333343 0
0.086666666 -0.0283333343 0
0.0833333358 -0.0283333343 0
0.0799999982 -0.0283333343 0
0.0766666681 -0.0283333343 0
0.0733333305 -0.0283333343 0
0.0700000003 -0.0283333343 0
0.0666666701 -0.0283333343 0
0.0633333325 -0.0283333343 0
0.0599999987 -0.0283333343 0
0.0566666685 -0.0283333343 0
0.0533333346 -0.0283333343 0
0.0500000007 -0.0283333343 0
0.0466666669 -0.0283333343 0
0.043333333 -0.0283333343 0
0.0399999991 -0.0283333343 0
0.0366666652 -0.0283333343 0
0.0333333351 -0.0283333343 0
0.0299999993 -0.0283333343 0
0.0266666673 -0.0283333343 0
0.0233333334 -0.0283333343 0
0.0199999996 -0.0283333343 0
0.0166666675 -0.0283333343 0
0.0133333337 -0.0283333343 0
0.00999999978 -0.0283333343 0
0.00666666683 -0.0283333343 0
0.00333333341 -0.0283333343 0
0.0 -0.0283333343 0
[...]
POINT_DATA 961.0
SCALARS Temp float 1
LOOKUP_TABLE default
177.4449290938968
150.75068365400531
142.2335143150101
140.12707340042235
139.65937515546295
139.56160223619386
139.5419315484078
139.53807820843468
139.5373379749394
139.53719789139132
139.53717169313987
139.53716684033304
139.53716594852617
139.53716578575316
139.5371657563726
139.53716575199442
139.5371657563726
139.53716578575305
139.53716594852645
139.53716684033495
139.53717169312145
139.53719789140172
139.53733797521312
139.5380782078483
139.54193155590437
139.5616021971367
139.6593752111875
140.12707259109786
142.23351464570848
150.75070974066608
177.44492634767656
150.75074573411877
123.3308177196127
114.56129121890781
112.3885724042833
111.9056914316431
111.80466548791782
111.78432962405094
111.78034415572243
111.77957827675397
111.7794332954465
111.77940617450855
111.77940114966425
111.77940022606717
111.77940005746275
111.77940002702506
111.77940002248894
111.77940002702506
111.77940005746264
111.77940022606742
111.77940114966613
111.77940617448937
111.77943329545624
111.77957827703058
111.7803441550744
111.78432963155052
111.80466544551184
111.90569148062906
112.3885714383912
114.56129142742428
123.33082945708266
150.75071342250993
142.23355595173518
114.56128427552893
105.683332228584
103.4762351935491
102.98454087948461
102.8814905281857
102.86071803658365
102.85664249730931
102.85585857546224
102.85571006327709
102.85568226294598
102.85567710921508
102.85567616143376
102.85567598833492
102.8556759570731
102.85567595241261
102.85567595707298
102.85567598833478
102.85567616143406
102.85567710921688
102.8556822629258
102.85571006328435
102.85585857572842
102.85664249653891
102.86071804353901
102.88149048075647
102.98454089700431
103.47623405783413
105.68333063051807
114.56129153584791
142.23351762868376
140.12711464231236
112.38856472416632
103.47623579555119
101.25552079339333
100.75963792025108
100.65550904023678
100.63448507780352
100.63035447732935
100.6295590259775
100.62940817329007
100.62937990930916
100.62937466539137
100.62937370033143
100.62937352396233
100.62937349209132
100.62937348733794
100.62937349209126
100.62937352396212
100.62937370033171
100.62937466539321
100.62937990928806
100.6294081732938
100.62955902622511
100.63035447640954
100.6344850840324
100.65550898696524
100.7596379108517
101.25551944801684
103.4762336162241
112.38857103531774
140.12707509621646
139.65941750063487
111.90568496052536
102.98454277544447
100.75963933928222
100.26217558646606
100.1575657891508
100.13641646375476
100.13225609507766
100.13145400682596
100.13130174005974
100.13127318450171
100.1312678819929
100.13126690538981
100.13126672678378
100.13126669448765
100.13126668966855
100.13126669448766
100.13126672678372
100.1312669053902
100.13126788199466
100.13127318447975
100.13130174005968
100.13145400705375
100.13225609402612
100.13641646928546
100.15756573193256
100.26217555533547
100.75963792532538
102.98454046238116
111.90569108129793
139.65937771585362
139.56164448698985
111.80465891523336
102.88149234067552
100.65551038589234
100.15756572429731
100.0527802700385
100.03157769575633
100.0274032525066
100.02659775995838
100.02644471989476
100.02641599658025
100.02641065890569
100.02640967512832
100.02640949508957
100.02640946251411
100.02640945765097
100.0264094625141
100.02640949508951
100.02640967512856
100.02641065890732
100.0264159965576
100.02644471989164
100.0265977601702
100.02740325135802
100.03157770085463
100.05278021042218
100.15756568599744
100.65550895511478
102.88148999944583
111.80466499934569
139.5616046566683
139.5419738333342
111.78432308647615
102.8607198870029
100.6344864645549
100.13641644131694
100.03157773911404
100.01035617326535
100.00617597517636
100.00536894103753
100.00521552153927
100.00518671045477
100.00518135339881
100.0051803654908
100.00518018459644
100.0051801518489
100.00518014695805
100.00518015184886
100.00518018459644
100.00518036549104
100.00518135340035
100.00518671043167
100.00521552153403
100.00536894123886
100.0061759739747
100.01035617813106
100.03157767870289
100.13641640118436
100.63448503006181
102.8607175401653
111.78432916368315
139.54193399444563
139.5381204861031
111.78033761048232
102.85664434028273
100.63035585691286
100.13225606570072
100.027403289062
100.00617596842675
100.00199375455058
100.00118610902355
100.00103252374103
100.00100367119083
100.00099830437695
100.0009973142772
100.0009971329083
100.00099710006174
100.00099709515442
100.00099710006168
100.00099713290824
100.00099731427746
100.00099830437838
100.00100367116733
100.00103252373448
100.00118610921935
100.0019937533237
100.00617597321501
100.02740322843928
100.13225602514946
100.63035442165217
102.85664199236147
111.7803436864062
139.5380806456241
139.53738025332117
111.77957173221745
102.8558604192116
100.6295604064141
100.13145397834884
100.02659779745693
100.00536893524573
100.0011861099885
100.00037825330148
100.0002246038838
100.0001957337527
100.00019036247694
100.00018937131036
100.00018918969793
100.00018915679821
100.0001891518819
100.00018915679819
100.0001891896979
100.00018937131046
100.00019036247849
100.00019573372906
100.0002246038766
100.0003782534947
100.00118610875322
100.0053689400129
100.02659773678403
100.13145393770859
100.62955897100056
102.85585807108527
111.7795778079056
139.53734041254899
139.537240169383
111.77942675049924
102.8557119066146
100.62940955331923
100.13130171117841
100.02644475699438
100.0052155153512
100.00103252431107
100.00022460348923
100.00007093216823
100.00004205537417
100.00003668225445
100.0000356906136
100.00003550888613
100.00003547596002
100.00003547103908
100.00003547596
100.00003550888606
100.00003569061371
100.00003668225578
100.0000420553505
100.00007093216072
100.00022460368166
100.00103252307346
100.00521552011324
100.02644469631049
100.13130167052013
100.62940811787604
102.85570955845003
111.77943282614436
139.5372003285573
139.53721397111016
111.77939962953765
102.85568410626067
100.62938128931677
100.13127315559977
100.02641603366044
100.00518670424785
100.0010036717424
100.00019573333987
100.00004205535596
100.0000131763071
100.00000780250035
100.00000681066783
100.00000662889056
100.0000065959523
100.00000659102915
100.00000659595224
100.00000662889038
100.00000681066794
100.00000780250178
100.0000131762834
100.0000420553484
100.00019573353205
100.0010036705041
100.00518670900864
100.02641597297423
100.13127311493785
100.62937985386799
102.85568175808899
111.77940570517488
139.53717413027474
139.5372091183133
111.77939460470328
102.8556789525402
100.62937604540983
100.13126785310209
100.02641069599743
100.00518134720343
100.00099830494038
100.00019036207593
100.00003668224805
100.00000780251214
100.00000242847474
100.00000143657181
100.00000125477479
100.00000122183144
100.00000121690724
100.00000122183137
100.00000125477465
100.00000143657198
100.00000242847617
100.00000780248847
100.00003668224039
100.00019036226796
100.00099830370193
100.0051813519641
100.02641063531064
100.13126781243953
100.62937460995997
102.85567660436723
111.77940068033918
139.5371692774762
139.53720822650521
111.77939368110485
102.85567800475756
100.62937508034865
100.1312668764978
100.02640971221875
100.0051803592942
100.0009973148394
100.00018937090809
100.00003569060593
100.00000681067849
100.00000143657053
100.00000044464413
100.00000026283998
100.0000002298946
100.00000022496998
100.00000022989452
100.0000002628399
100.00000044464433
100.00000143657195
100.00000681065471
100.00003569059837
100.00018937110015
100.00099731360095
100.00518036405475
100.0264096515319
100.13126683583512
100.62937364489856
102.85567565658434
111.77939975674043
139.53716838566777
139.5372080637318
111.77939351250002
102.85567783165834
100.62937490397896
100.13126669789133
100.02640953217961
100.00518017839944
100.00099713347002
100.00018918929533
100.00003550887824
100.00000662890083
100.00000125477317
100.00000026283958
100.00000008103298
100.00000004808693
100.00000004316219
100.00000004808692
100.00000008103291
100.00000026283975
100.00000125477457
100.00000662887702
100.00003550887058
100.00018918948746
100.00099713223165
100.00518018315998
100.02640947149271
100.13126665722864
100.62937346852888
102.8556754834851
111.77939958813569
139.53716822289425
139.5372080343512
111.77939348206236
102.85567780039646
100.62937487210803
100.13126666559516
100.02640949960416
100.00518014565195
100.00099710062344
100.0001891563956
100.00003547595212
100.0000065959626
100.00000122182982
100.00000022989421
100.00000004808696
100.0000000151406
100.00000001021583
100.00000001514063
100.00000004808685
100.00000022989443
100.00000122183118
100.00000659593888
100.00003547594453
100.00018915658771
100.00099709938506
100.00518015041244
100.02640943891723
100.13126662493246
100.62937343665796
102.85567545222325
111.77939955769801
139.53716819351368
139.53720802997313
111.77939347752624
102.85567779573611
100.62937486735474
100.13126666077608
100.02640949474102
100.00518014076108
100.0009970957162
100.00018915147933
100.00003547103121
100.0000065910395
100.00000121690564
100.00000022496964
100.00000004316223
100.00000001021587
100.000000005291
100.00000001021586
100.00000004316213
100.00000022496978
100.00000121690704
100.00000659101566
100.0000354710236
100.00018915167148
100.00099709447784
100.00518014552156
100.02640943405412
100.13126662011338
100.62937343190464
102.8556754475628
111.77939955316187
139.53716818913557
139.5372080343512
111.77939348206236
102.85567780039646
100.62937487210802
100.13126666559516
100.02640949960411
100.0051801456519
100.00099710062344
100.0001891563956
100.00003547595213
100.00000659596266
100.00000122182983
100.00000022989424
100.00000004808699
100.00000001514064
100.00000001021586
100.00000001514057
100.00000004808685
100.00000022989438
100.00000122183123
100.00000659593893
100.00003547594453
100.00018915658772
100.00099709938507
100.00518015041241
100.02640943891724
100.13126662493246
100.6293734366579
102.85567545222318
111.77939955769799
139.53716819351374
139.53720806373178
111.77939351250001
102.8556778316583
100.62937490397901
100.1312666978913
100.02640953217956
100.00518017839948
100.00099713347004
100.00018918929537
100.00003550887823
100.00000662890085
100.0000012547732
100.00000026283959
100.00000008103304
100.00000004808695
100.00000004316217
100.00000004808689
100.00000008103292
100.00000026283976
100.00000125477453
100.00000662887706
100.00003550887065
100.00018918948743
100.00099713223166
100.00518018316
100.02640947149271
100.13126665722864
100.62937346852891
102.85567548348507
111.77939958813565
139.53716822289434
139.53720822650516
111.7793936811048
102.85567800475755
100.62937508034857
100.13126687649779
100.02640971221875
100.00518035929417
100.00099731483937
100.0001893709081
100.00003569060603
100.00000681067846
100.00000143657059
100.00000044464413
100.00000026284003
100.00000022989458
100.00000022496998
100.00000022989457
100.00000026283985
100.00000044464433
100.00000143657196
100.00000681065471
100.00003569059835
100.00018937110016
100.0009973136009
100.00518036405472
100.0264096515319
100.13126683583515
100.62937364489859
102.85567565658434
111.77939975674043
139.5371683856677
139.53720911831306
111.77939460470307
102.85567895253995
100.62937604540959
100.13126785310192
100.02641069599734
100.00518134720342
100.00099830494031
100.00019036207595
100.00003668224801
100.00000780251213
100.00000242847479
100.00000143657181
100.00000125477474
100.00000122183145
100.00000121690724
100.00000122183135
100.00000125477467
100.00000143657198
100.00000242847611
100.00000780248845
100.00003668224039
100.00019036226796
100.00099830370193
100.00518135196404
100.02641063531061
100.13126781243956
100.62937460995997
102.85567660436718
111.77940068033917
139.5371692774762
139.53721397110854
111.77939962953604
102.85568410625929
100.62938128931569
100.13127315559902
100.02641603366006
100.00518670424765
100.00100367174228
100.00019573333981
100.000042055356
100.00001317630712
100.00000780250036
100.00000681066773
100.00000662889059
100.0000065959523
100.00000659102915
100.00000659595229
100.00000662889043
100.00000681066797
100.00000780250178
100.0000131762834
100.00004205534839
100.00019573353198
100.00100367050409
100.00518670900863
100.02641597297418
100.13127311493785
100.62937985386796
102.85568175808899
111.77940570517494
139.5371741302748
139.53724016937383
111.77942675049025
102.85571190660714
100.62940955331374
100.13130171117503
100.02644475699259
100.0052155153504
100.00103252431089
100.00022460348916
100.00007093216824
100.00004205537427
100.00003668225447
100.00003569061361
100.0000355088862
100.00003547596013
100.00003547103911
100.00003547596
100.00003550888603
100.00003569061376
100.00003668225575
100.00004205535053
100.00007093216074
100.00022460368163
100.00103252307348
100.00521552011324
100.02644469631048
100.13130167052013
100.62940811787603
102.85570955845002
111.77943282614432
139.53720032855736
139.53738025326885
111.77957173216743
102.85586041917055
100.62956040638556
100.13145397833222
100.02659779744887
100.00536893524294
100.0011861099878
100.00037825330149
100.00022460388395
100.00019573375283
100.00019036247701
100.00018937131037
100.000189189698
100.0001891567983
100.000189151882
100.0001891567982
100.00018918969788
100.00018937131054
100.00019036247843
100.00019573372917
100.00022460387656
100.00037825349477
100.0011861087532
100.0053689400129
100.02659773678404
100.13145393770863
100.62955897100056
102.85585807108521
111.77957780790558
139.53734041254887
139.5381204858087
111.78033761020335
102.85664434006156
100.63035585677001
100.1322560656244
100.02740328903306
100.00617596841875
100.00199375455064
100.00118610902439
100.00103252374142
100.00100367119092
100.00099830437703
100.0009973142774
100.00099713290835
100.0009971000617
100.00099709515443
100.0009971000617
100.00099713290824
100.00099731427741
100.0009983043785
100.00100367116738
100.00103252373455
100.00118610921929
100.00199375332372
100.00617597321505
100.02740322843933
100.13225602514945
100.6303544216522
102.85664199236143
111.78034368640617
139.53808064562392
139.54197383168884
111.78432308492431
102.86071988585634
100.63448646385805
100.1364164410266
100.03157773902332
100.01035617326536
100.00617597518446
100.00536894104047
100.00521552154025
100.00518671045512
100.00518135339901
100.00518036549083
100.00518018459648
100.00518015184893
100.00518014695811
100.00518015184885
100.00518018459643
100.00518036549103
100.00518135340036
100.00518671043174
100.00521552153404
100.0053689412389
100.00617597397473
100.01035617813105
100.03157767870287
100.13641640118436
100.6344850300618
102.86071754016523
111.78432916368318
139.54193399444566
139.56164447762407
111.80465890695936
102.88149233468108
100.65551038307875
100.15756572326683
100.0527802700385
100.03157769584715
100.02740325253556
100.02659775996646
100.02644471989663
100.02641599658072
100.02641065890593
100.02640967512832
100.02640949508955
100.02640946251414
100.02640945765097
100.02640946251402
100.02640949508944
100.0264096751285
100.02641065890727
100.02641599655757
100.02644471989161
100.02659776017023
100.02740325135807
100.03157770085463
100.05278021042216
100.15756568599745
100.6555089551147
102.88148999944579
111.80466499934563
139.5616046566683
139.6594174512677
111.90568491371117
102.9845427497333
100.75963932764274
100.26217558646611
100.15756579018137
100.13641646404513
100.13225609515409
100.13145400684262
100.13130174006326
100.1312731845025
100.13126788199307
100.13126690538992
100.13126672678382
100.13126669448766
100.1312666896685
100.13126669448756
100.13126672678376
100.1312669053901
100.13126788199462
100.13127318447974
100.13130174005966
100.13145400705372
100.13225609402613
100.13641646928554
100.1575657319326
100.26217555533539
100.75963792532539
102.98454046238108
111.90569108129786
139.6593777158537
140.12711433642468
112.38856451467646
103.47623566597713
101.25552079339337
100.75963793189072
100.6555090430505
100.63448507850039
100.6303544774723
100.62955902600618
100.62940817329566
100.62937990931025
100.62937466539155
100.62937370033148
100.62937352396227
100.62937349209125
100.62937348733797
100.62937349209126
100.62937352396216
100.62937370033174
100.62937466539312
100.62937990928795
100.62940817329374
100.62955902622508
100.63035447640955
100.63448508403248
100.65550898696524
100.75963791085165
101.2555194480168
103.47623361622402
112.38857103531778
140.12707509621646
142.23355468344994
114.56128287893317
105.68333222858419
103.47623532312335
102.9845409051958
102.88149053418016
102.86071803773028
102.85664249753057
102.85585857550339
102.8557100632846
102.85568226294738
102.85567710921538
102.85567616143388
102.85567598833488
102.8556759570731
102.85567595241267
102.85567595707298
102.85567598833482
102.855676161434
102.85567710921688
102.85568226292582
102.8557100632843
102.85585857572846
102.85664249653897
102.86071804353908
102.8814904807565
102.98454089700427
103.47623405783413
105.68333063051807
114.56129153584794
142.23351762868384
150.7507316702252
123.33081771961899
114.56129261550636
112.38857261377426
111.90569147845746
111.80466549619177
111.78432962560285
111.78034415600148
111.77957827680402
111.77943329545539
111.7794061745101
111.77940114966462
111.77940022606721
111.77940005746274
111.77940002702512
111.77940002248891
111.779400027025
111.77940005746261
111.77940022606744
111.77940114966614
111.7794061744893
111.77943329545619
111.77957827703067
111.78034415507442
111.7843296315505
111.80466544551179
111.90569148062902
112.38857143839115
114.56129142742422
123.33082945708273
150.75071342250993
177.44492909387915
150.7506977179025
142.23351558329952
140.12707370631128
139.65937520483016
139.5616022455597
139.54193155005325
139.538078208729
139.53733797499174
139.5371978914005
139.53717169314154
139.53716684033344
139.5371659485262
139.53716578575316
139.5371657563727
139.53716575199442
139.53716575637256
139.53716578575307
139.53716594852642
139.5371668403349
139.53717169312145
139.53719789140175
139.53733797521312
139.53807820784843
139.54193155590443
139.56160219713675
139.65937521118747
140.1270725910978
142.23351464570845
150.75070974066608
177.44492634767659
