# vtk DataFile Version 2.0
Unstructured Grid Example
ASCII
DATASET UNSTRUCTURED_GRID

POINTS 961 float
0.100000001 0.00499999989 0
0.0966666639 0.00499999989 0
0.0933333337 0.00499999989 0
0.0900000036 0.00499999989 0
0.086666666 0.00499999989 0
0.0833333358 0.00499999989 0
0.0799999982 0.00499999989 0
0.0766666681 0.00499999989 0
0.0733333305 0.00499999989 0
0.0700000003 0.00499999989 0
0.0666666701 0.00499999989 0
0.0633333325 0.00499999989 0
0.0599999987 0.00499999989 0
0.0566666685 0.00499999989 0
0.0533333346 0.00499999989 0
0.0500000007 0.00499999989 0
0.0466666669 0.00499999989 0
0.043333333 0.00499999989 0
0.0399999991 0.00499999989 0
0.0366666652 0.00499999989 0
0.0333333351 0.00499999989 0
0.0299999993 0.00499999989 0
0.0266666673 0.00499999989 0
0.0233333334 0.00499999989 0
0.0199999996 0.00499999989 0
0.0166666675 0.00499999989 0
0.0133333337 0.00499999989 0
0.00999999978 0.00499999989 0
0.00666666683 0.00499999989 0
0.00333333341 0.00499999989 0
0 0.00499999989 0
0.100000001 0.00166666671 0
0.0966666639 0.00166666671 0
0.0933333337 0.00166666671 0
0.0900000036 0.00166666671 0
0.086666666 0.00166666671 0
0.0833333358 0.00166666671 0
0.0799999982 0.00166666671 0
0.0766666681 0.00166666671 0
0.0733333305 0.00166666671 0
0.0700000003 0.00166666671 0
0.0666666701 0.00166666671 0
0.0633333325 0.00166666671 0
0.0599999987 0.00166666671 0
0.0566666685 0.00166666671 0
0.0533333346 0.00166666671 0
0.0500000007 0.00166666671 0
0.0466666669 0.00166666671 0
0.043333333 0.00166666671 0
0.0399999991 0.00166666671 0
0.0366666652 0.00166666671 0
0.0333333351 0.00166666671 0
0.0299999993 0.00166666671 0
0.0266666673 0.00166666671 0
0.0233333334 0.00166666671 0
0.0199999996 0.00166666671 0
0.0166666675 0.00166666671 0
0.0133333337 0.00166666671 0
0.00999999978 0.00166666671 0
0.00666666683 0.00166666671 0
0.00333333341 0.00166666671 0
0 0.00166666671 0
0.100000001 -0.00166666671 0
0.0966666639 -0.00166666671 0
0.0933333337 -0.00166666671 0
0.0900000036 -0.00166666671 0
0.086666666 -0.00166666671 0
0.0833333358 -0.00166666671 0
0.0799999982 -0.00166666671 0
0.0766666681 -0.00166666671 0
0.0733333305 -0.00166666671 0
0.0700000003 -0.00166666671 0
0.0666666701 -0.00166666671 0
0.0633333325 -0.00166666671 0
0.0599999987 -0.00166666671 0
0.0566666685 -0.00166666671 0
0.0533333346 -0.00166666671 0
0.0500000007 -0.00166666671 0
0.0466666669 -0.00166666671 0
0.043333333 -0.00166666671 0
0.0399999991 -0.00166666671 0
0.0366666652 -0.00166666671 0
0.0333333351 -0.00166666671 0
0.0299999993 -0.00166666671 0
0.0266666673 -0.00166666671 0
0.0233333334 -0.00166666671 0
0.0199999996 -0.00166666671 0
0.0166666675 -0.00166666671 0
0.0133333337 -0.00166666671 0
0.00999999978 -0.00166666671 0
0.00666666683 -0.00166666671 0
0.00333333341 -0.00166666671 0
0 -0.00166666671 0
0.100000001 -0.00499999989 0
0.0966666639 -0.00499999989 0
0.0933333337 -0.00499999989 0
0.0900000036 -0.00499999989 0
0.086666666 -0.00499999989 0
0.0833333358 -0.00499999989 0
0.0799999982 -0.00499999989 0
0.0766666681 -0.00499999989 0
0.0733333305 -0.00499999989 0
0.0700000003 -0.00499999989 0
0.0666666701 -0.00499999989 0
0.0633333325 -0.00499999989 0
0.0599999987 -0.00499999989 0
0.0566666685 -0.00499999989 0
0.0533333346 -0.00499999989 0
0.0500000007 -0.00499999989 0
0.0466666669 -0.00499999989 0
0.043333333 -0.00499999989 0
0.0399999991 -0.00499999989 0
0.0366666652 -0.00499999989 0
0.0333333351 -0.00499999989 0
0.0299999993 -0.00499999989 0
0.0266666673 -0.00499999989 0
0.0233333334 -0.00499999989 0
0.0199999996 -0.00499999989 0
0.0166666675 -0.00499999989 0
0.0133333337 -0.00499999989 0
0.00999999978 -0.00499999989 0
0.00666666683 -0.00499999989 0
0.00333333341 -0.00499999989 0
0 -0.00499999989 0
0.100000001 -0.00833333377 0
0.0966666639 -0.00833333377 0
0.0933333337 -0.00833333377 0
0.0900000036 -0.00833333377 0
0.086666666 -0.00833333377 0
0.0833333358 -0.00833333377 0
0.0799999982 -0.00833333377 0
0.0766666681 -0.00833333377 0
0.0733333305 -0.00833333377 0
0.0700000003 -0.00833333377 0
0.0666666701 -0.00833333377 0
0.0633333325 -0.00833333377 0
0.0599999987 -0.00833333377 0
0.0566666685 -0.00833333377 0
0.0533333346 -0.00833333377 0
0.0500000007 -0.00833333377 0
0.0466666669 -0.00833333377 0
0.043333333 -0.00833333377 0
0.0399999991 -0.00833333377 0
0.0366666652 -0.00833333377 0
0.0333333351 -0.00833333377 0
0.0299999993 -0.00833333377 0
0.0266666673 -0.00833333377 0
0.0233333334 -0.00833333377 0
0.0199999996 -0.00833333377 0
0.0166666675 -0.00833333377 0
0.0133333337 -0.00833333377 0
0.00999999978 -0.00833333377 0
0.00666666683 -0.00833333377 0
0.00333333341 -0.00833333377 0
0 -0.00833333377 0
0.100000001 -0.0116666667 0
0.0966666639 -0.0116666667 0
0.0933333337 -0.0116666667 0
0.0900000036 -0.0116666667 0
0.086666666 -0.0116666667 0
0.0833333358 -0.0116666667 0
0.0799999982 -0.0116666667 0
0.0766666681 -0.0116666667 0
0.0733333305 -0.0116666667 0
0.0700000003 -0.0116666667 0
0.0666666701 -0.0116666667 0
0.0633333325 -0.0116666667 0
0.0599999987 -0.0116666667 0
0.0566666685 -0.0116666667 0
0.0533333346 -0.0116666667 0
0.0500000007 -0.0116666667 0
0.0466666669 -0.0116666667 0
0.043333333 -0.0116666667 0
0.0399999991 -0.0116666667 0
0.0366666652 -0.0116666667 0
0.0333333351 -0.0116666667 0
0.0299999993 -0.0116666667 0
0.0266666673 -0.0116666667 0
0.0233333334 -0.0116666667 0
0.0199999996 -0.0116666667 0
0.0166666675 -0.0116666667 0
0.0133333337 -0.0116666667 0
0.00999999978 -0.0116666667 0
0.00666666683 -0.0116666667 0
0.00333333341 -0.0116666667 0
0 -0.0116666667 0
0.100000001 -0.0149999997 0
0.0966666639 -0.0149999997 0
0.0933333337 -0.0149999997 0
0.0900000036 -0.0149999997 0
0.086666666 -0.0149999997 0
0.0833333358 -0.0149999997 0
0.0799999982 -0.0149999997 0
0.0766666681 -0.0149999997 0
0.0733333305 -0.0149999997 0
0.0700000003 -0.0149999997 0
0.0666666701 -0.0149999997 0
0.0633333325 -0.0149999997 0
0.0599999987 -0.0149999997 0
0.0566666685 -0.0149999997 0
0.0533333346 -0.0149999997 0
0.0500000007 -0.0149999997 0
0.0466666669 -0.0149999997 0
0.043333333 -0.0149999997 0
0.0399999991 -0.0149999997 0
0.0366666652 -0.0149999997 0
0.0333333351 -0.0149999997 0
0.0299999993 -0.0149999997 0
0.0266666673 -0.0149999997 0
0.0233333334 -0.0149999997 0
0.0199999996 -0.0149999997 0
0.0166666675 -0.0149999997 0
0.0133333337 -0.0149999997 0
0.00999999978 -0.0149999997 0
0.00666666683 -0.0149999997 0
0.00333333341 -0.0149999997 0
0 -0.0149999997 0
0.100000001 -0.0183333326 0
0.0966666639 -0.0183333326 0
0.0933333337 -0.0183333326 0
0.0900000036 -0.0183333326 0
0.086666666 -0.0183333326 0
0.0833333358 -0.0183333326 0
0.0799999982 -0.0183333326 0
0.0766666681 -0.0183333326 0
0.0733333305 -0.0183333326 0
0.0700000003 -0.0183333326 0
0.0666666701 -0.0183333326 0
0.0633333325 -0.0183333326 0
0.0599999987 -0.0183333326 0
0.0566666685 -0.0183333326 0
0.0533333346 -0.0183333326 0
0.0500000007 -0.0183333326 0
0.0466666669 -0.0183333326 0
0.043333333 -0.0183333326 0
0.0399999991 -0.0183333326 0
0.0366666652 -0.0183333326 0
0.0333333351 -0.0183333326 0
0.0299999993 -0.0183333326 0
0.0266666673 -0.0183333326 0
0.0233333334 -0.0183333326 0
0.0199999996 -0.0183333326 0
0.0166666675 -0.0183333326 0
0.0133333337 -0.0183333326 0
0.00999999978 -0.0183333326 0
0.00666666683 -0.0183333326 0
0.00333333341 -0.0183333326 0
0 -0.0183333326 0
0.100000001 -0.0216666665 0
0.0966666639 -0.0216666665 0
0.0933333337 -0.0216666665 0
0.0900000036 -0.0216666665 0
0.086666666 -0.0216666665 0
0.0833333358 -0.0216666665 0
0.0799999982 -0.0216666665 0
0.0766666681 -0.0216666665 0
0.0733333305 -0.0216666665 0
0.0700000003 -0.0216666665 0
0.0666666701 -0.0216666665 0
0.0633333325 -0.0216666665 0
0.0599999987 -0.0216666665 0
0.0566666685 -0.0216666665 0
0.0533333346 -0.0216666665 0
0.0500000007 -0.0216666665 0
0.0466666669 -0.0216666665 0
0.043333333 -0.0216666665 0
0.0399999991 -0.0216666665 0
0.0366666652 -0.0216666665 0
0.0333333351 -0.0216666665 0
0.0299999993 -0.0216666665 0
0.0266666673 -0.0216666665 0
0.0233333334 -0.0216666665 0
0.0199999996 -0.0216666665 0
0.0166666675 -0.0216666665 0
0.0133333337 -0.0216666665 0
0.00999999978 -0.0216666665 0
0.00666666683 -0.0216666665 0
0.00333333341 -0.0216666665 0
0 -0.0216666665 0
0.100000001 -0.0250000004 0
0.0966666639 -0.0250000004 0
0.0933333337 -0.0250000004 0
0.0900000036 -0.0250000004 0
0.086666666 -0.0250000004 0
0.0833333358 -0.0250000004 0
0.0799999982 -0.0250000004 0
0.0766666681 -0.0250000004 0
0.0733333305 -0.0250000004 0
0.0700000003 -0.0250000004 0
0.0666666701 -0.0250000004 0
0.0633333325 -0.0250000004 0
0.0599999987 -0.0250000004 0
0.0566666685 -0.0250000004 0
0.0533333346 -0.0250000004 0
0.0500000007 -0.0250000004 0
0.0466666669 -0.0250000004 0
0.043333333 -0.0250000004 0
0.0399999991 -0.0250000004 0
0.0366666652 -0.0250000004 0
0.0333333351 -0.0250000004 0
0.0299999993 -0.0250000004 0
0.0266666673 -0.0250000004 0
0.0233333334 -0.0250000004 0
0.0199999996 -0.0250000004 0
0.0166666675 -0.0250000004 0
0.0133333337 -0.0250000004 0
0.00999999978 -0.0250000004 0
0.00666666683 -0.0250000004 0
0.00333333341 -0.0250000004 0
0 -0.0250000004 0
0.100000001 -0.0283333343 0
0.0966666639 -0.0283333343 0
0.0933333337 -0.0283333343 0
0.0900000036 -0.0283333343 0
0.086666666 -0.0283333343 0
0.0833333358 -0.0283333343 0
0.0799999982 -0.0283333343 0
0.0766666681 -0.0283333343 0
0.0733333305 -0.0283333343 0
0.0700000003 -0.0283333343 0
0.0666666701 -0.0283333343 0
0.0633333325 -0.0283333343 0
0.0599999987 -0.0283333343 0
0.0566666685 -0.0283333343 0
0.0533333346 -0.0283333343 0
0.0500000007 -0.0283333343 0
0.0466666669 -0.0283333343 0
0.043333333 -0.0283333343 0
0.0399999991 -0.0283333343 0
0.0366666652 -0.0283333343 0
0.0333333351 -0.0283333343 0
0.0299999993 -0.0283333343 0
0.0266666673 -0.0283333343 0
0.0233333334 -0.0283333343 0
0.0199999996 -0.0283333343 0
0.0166666675 -0.0283333343 0
0.0133333337 -0.0283333343 0
0.00999999978 -0.0283333343 0
0.00666666683 -0.0283333343 0
0.00333333341 -0.0283333343 0
0 -0.0283333343 0
0.100000001 -0.0316666663 0
[...]
POINT_DATA 961
SCALARS Temp float 1
LOOKUP_TABLE default
177.44492942086958
150.75068398183546
142.23351440398253
140.12707340024068
139.65937513581002
139.56160221204573
139.54193152328443
139.5380781831056
139.53733794956835
139.53719786601195
139.53717166775886
139.53716681495186
139.53716592314493
139.5371657603719
139.53716573099132
139.5371657266132
139.53716573099132
139.53716576037178
139.53716592314518
139.53716681495357
139.5371716677399
139.5371978660193
139.5373379498257
139.53807818243402
139.54193153034703
139.56160217083635
139.65937518124136
140.12707254428722
142.2335145434345
150.75070941512328
177.44492603125
150.75074723486736
123.33081819570134
114.56129128778096
112.3885723833196
111.90569138808286
111.8046654393268
111.78432957436722
111.78034410581206
111.779578226798
111.77943324548158
111.77940612454191
111.77940109969741
111.77940017610021
111.77940000749574
111.7793999770581
111.779399972522
111.77939997705809
111.77940000749565
111.77940017610047
111.77940109969913
111.77940612452214
111.77943324548816
111.77957822705741
111.78034410507377
111.78432958140525
111.80466539461352
111.90569142588953
112.3885713657479
114.5612912726716
123.33082909263473
150.75071206705988
142.23355929760675
114.56128454377034
105.68333203063102
103.47623487357271
102.98454053045482
102.88149017261757
102.86071767965304
102.85664214010512
102.85585821820462
102.8557097060092
102.85568190567619
102.85567675194494
102.85567580416362
102.85567563106467
102.85567559980288
102.85567559514246
102.85567559980284
102.85567563106473
102.85567580416387
102.85567675194667
102.8556819056554
102.85570970601299
102.85585821845214
102.85664213923704
102.8607176861027
102.88149012261846
102.98454053522482
103.47623367643074
105.68333014980074
114.56129055408022
142.23351583583954
140.12711626929703
112.38856547214051
103.4762359210238
101.25552074955516
100.7596378366348
100.65550894829153
100.63448498419669
100.63035438340232
100.62955893198978
100.62940807929103
100.62937981530797
100.6293745713899
100.62937360632984
100.62937342996068
100.62937339808965
100.6293733933364
100.62937339808957
100.62937342996052
100.62937360633012
100.62937457139155
100.62937981528623
100.62940807929104
100.62955893221736
100.63035438237627
100.63448498987005
100.6555088921595
100.75963781278261
101.25551933311539
103.47623340433968
112.38857027885375
140.12707141667667
139.6594206638048
111.90568612253321
102.984543008933
100.7596393301134
100.26217552648158
100.15756571913137
100.13641639182336
100.13225602278578
100.1314539344669
100.1313016676883
100.13127311212803
100.13126780961888
100.13126683301583
100.13126665440961
100.1312666221135
100.13126661729439
100.13126662211349
100.13126665440966
100.13126683301604
100.13126780962041
100.13127311210545
100.13130166768443
100.13145393467333
100.13225602162015
100.13641639675458
100.1575656588088
100.26217547960856
100.75963783862713
102.98454033148434
111.9056907053383
139.65937553860067
139.56165218334345
111.80466064582552
102.88149268410746
100.65551044306638
100.15756572607604
100.05278026140807
100.03157768516192
100.02740324154666
100.02659774893074
100.02644470885463
100.02641598553781
100.02641064786295
100.0264096640854
100.02640948404677
100.02640945147121
100.02640944660804
100.02640945147118
100.02640948404661
100.02640966408575
100.0264106478643
100.02641598551442
100.02644470884735
100.02659774911997
100.02740324027802
100.03157768962922
100.05278019853067
100.15756567131163
100.65550893195417
102.88148997383267
111.80466518555808
139.56160700913398
139.5419815875664
111.78432476180981
102.8607201959522
100.63448652242131
100.13641645132194
100.03157773971292
100.01035617206092
100.00617597362925
100.00536893942639
100.00521551991623
100.00518670882953
100.00518135177313
100.00518036386504
100.00518018297072
100.00518015022314
100.0051801453323
100.00518015022313
100.00518018297065
100.00518036386528
100.00518135177451
100.0051867088056
100.00521551990663
100.00536893960438
100.00617597230386
100.01035617627772
100.03157767596271
100.13641639443713
100.63448500702575
102.86071747913823
111.78432929372887
139.54193640436785
139.53812326889252
111.78033835410547
102.85664452260673
100.6303559003655
100.13225607486183
100.02740329079414
100.00617596863458
100.00199375445865
100.00118610887415
100.00103252358079
100.00100367102841
100.00099830421433
100.00099731411444
100.00099713274557
100.00099709989883
100.00099709499163
100.00099709989885
100.00099713274547
100.00099731411461
100.00099830421559
100.00100367100423
100.0010325235698
100.00118610904619
100.00199375310589
100.0061759727657
100.02740322680313
100.13225601749356
100.63035438408288
102.85664180455714
111.78034288460317
139.53807808409186
139.537377688591
111.77957159630157
102.85586051481471
100.62956043711755
100.13145398559058
100.02659779890983
100.00536893544358
100.00118610993187
100.00037825319437
100.00022460376698
100.00019573363402
100.00019036235791
100.00018937119115
100.0001891895788
100.00018915667911
100.00018915176284
100.00018915667913
100.00018918957872
100.00018937119135
100.0001903623592
100.00019573360957
100.00022460375527
100.0003782533637
100.00118610856983
100.00536893955041
100.02659773486143
100.13145392811906
100.62955892066064
102.85585779653499
111.77957612654446
139.53733250350797
139.53723794163258
111.77942702733624
102.85571201674065
100.62940958201409
100.13130171761115
100.02644475831106
100.00521551559302
100.00103252432831
100.00022460346116
100.00007093213122
100.00004205533546
100.0000366822153
100.00003569057432
100.00003550884689
100.00003547592088
100.00003547099995
100.00003547592094
100.00003550884686
100.00003569057452
100.00003668221652
100.00004205531089
100.00007093211924
100.00022460362956
100.00103252296364
100.00521551969406
100.02644469425005
100.13130166011888
100.62940806552395
102.85570929841879
111.77943155753421
139.53719275649792
139.5372211655599
111.77940072851435
102.85568428326717
100.62938132150971
100.13127316181517
100.02641603496555
100.00518670450914
100.0010036717877
100.00019573334059
100.0000420553478
100.00001317629716
100.0000078024901
100.00000681065745
100.00000662888016
100.00000659594197
100.00000659101882
100.00000659594194
100.00000662888012
100.00000681065755
100.0000078024913
100.00001317627266
100.00004205533574
100.00019573350873
100.00100367042234
100.0051867086088
100.02641597090187
100.13127310431884
100.6293798050132
102.85568156493764
111.7794052587074
139.53717598040814
139.5372168037896
111.7793957397689
102.85567913177101
100.62937607612989
100.13126785983539
100.02641069742299
100.00518134750244
100.00099830499988
100.00019036208614
100.00003668224846
100.00000780251064
100.0000024284729
100.00000143656987
100.00000125477278
100.00000122182946
100.00000121690525
100.0000012218294
100.0000012547727
100.00000143657002
100.00000242847408
100.00000780248617
100.00003668223637
100.00019036225416
100.0009983036343
100.0051813516018
100.02641063335865
100.13126780233809
100.6293745596322
102.8556764134401
111.77940026996066
139.5371716186359
139.53720647209764
111.77939401280364
102.85567809581296
100.62937511394988
100.13126688451385
100.02640971399447
100.00518035965862
100.00099731490758
100.00018937091683
100.00003569060306
100.00000681067327
100.00000143656501
100.00000044463843
100.0000002628342
100.0000002298889
100.00000022496428
100.00000022988887
100.00000026283413
100.00000044463859
100.00000143656618
100.00000681064864
100.00003569059086
100.00018937108477
100.00099731354187
100.00518036375782
100.02640964992992
100.13126682701629
100.62937359745175
102.85567537748166
111.77939854299201
139.53716128695135
139.53720530805927
111.77939307028679
102.85567798530757
100.6293749507896
100.13126670913151
100.02640953451768
100.0051801788396
100.00099713353102
100.00018918928221
100.00003550885093
100.00000662887088
100.00000125474276
100.00000026280908
100.00000008100237
100.00000004805635
100.00000004313158
100.00000004805624
100.00000008100233
100.00000026280912
100.00000125474388
100.00000662884614
100.0000355088387
100.00018918944996
100.00099713216507
100.00518018293832
100.02640947045246
100.13126665163318
100.62937343429036
102.85567526697498
111.77939760047359
139.5371601229139
139.5372069089326
111.77939493278414
102.85567814103788
100.6293749496249
100.13126668108121
100.02640950247729
100.00518014606489
100.00099710056305
100.00018915624624
100.0000354757858
100.00000659579298
100.00000122165959
100.00000022972377
100.0000000479164
100.00000001497004
100.00000001004531
100.00000001497001
100.00000004791634
100.00000022972381
100.00000122166054
100.00000659576806
100.00003547577296
100.000189156413
100.00099709919543
100.00518015016111
100.02640943840878
100.13126662357831
100.62937343312015
102.85567542269884
111.77939946296371
139.5371617237767
139.53722587724627
111.77939662721796
102.85567836664988
100.62937496945537
100.13126667891078
100.02640949737416
100.00518014048264
100.00099709489733
100.00018915055773
100.00003547008897
100.00000659009253
100.00000121595747
100.00000022402097
100.00000004221332
100.00000000926696
100.00000000434207
100.00000000926688
100.00000004221307
100.00000022402072
100.00000121595777
100.00000659006608
100.0000354700733
100.0001891507193
100.00099709352116
100.00518014456554
100.02640943328652
100.13126662138238
100.6293734529188
102.85567564827397
111.7794011573642
139.53718069203475
139.53722588096517
111.77939663042575
102.85567836951996
100.62937497114382
100.13126668018151
100.02640949809614
100.0051801411434
100.00099709553301
100.00018915118333
100.00003547070878
100.00000659070899
100.00000121657213
100.00000022463486
100.00000004282684
100.00000000988031
100.00000000495542
100.00000000988011
100.00000004282629
100.0000002246335
100.00000121656967
100.00000659067614
100.00003547067973
100.00018915131965
100.0009970941129
100.00518014515615
100.02640943390472
100.13126662251177
100.6293734544283
102.85567565093491
111.7794011603448
139.53718069552676
139.53720693068615
111.77939495714175
102.8556781561398
100.62937496186386
100.13126668666685
100.02640950709822
100.00518015038638
100.00099710477744
100.0001891604002
100.00003547990383
100.00000659989105
100.00000122574764
100.00000023380736
100.00000005199824
100.00000001905131
100.00000001412627
100.00000001905079
100.00000005199638
100.0000002338021
100.00000122573417
100.0000065998313
100.0000354798148
100.0001891604161
100.00099710313795
100.00518015403367
100.0264094423508
100.13126662821705
100.62937344414557
102.85567543636152
111.77939948575397
139.53716174395436
139.5372054655791
111.77939316507535
102.85567809052246
100.6293749843222
100.13126673566116
100.02640955878596
100.00518020231503
100.00099715652841
100.00018921197555
100.00003553136608
100.00000665129294
100.00000127712137
100.00000028516997
100.00000010335701
100.0000000704089
100.00000006548339
100.00000007040744
100.0000001033515
100.00000028515204
100.00000127706902
100.00000665112643
100.0000355310202
100.0001892114381
100.00099715381998
100.00518020410074
100.02640949108633
100.13126667296346
100.62937346098953
102.85567536399401
111.77939768621536
139.5371602713513
139.53720681289454
111.77939497076872
102.85567827843285
100.62937526326766
100.13126701930733
100.02640984386706
100.00518048604869
100.00099743884579
100.00018949331276
100.00003581214965
100.00000693180567
100.00000155752521
100.0000005655349
100.00000038371084
100.0000003507597
100.00000034583327
100.00000035075607
100.00000038369609
100.00000056548133
100.0000015573459
100.00000693125403
100.00003581076554
100.00018949035216
100.00099743111132
100.00518047855368
100.02640976082183
100.13126693361548
100.62937370891034
102.85567551364156
111.77939944939118
139.5371615754953
139.5372257805487
111.7793963903603
102.85567994291081
100.62937681673203
100.13126857690102
100.02641139117743
100.00518202241535
100.00099896699047
100.00019101649244
100.00003733275177
100.00000845134227
100.00000307666804
100.00000208456775
100.00000190271483
100.00000186975697
100.00000186482859
100.00000186974891
100.00000190267927
100.00000208442486
100.00000307613978
100.00000844952174
100.0000373275721
100.0001910035114
100.00099893671374
100.00518197019554
100.02641122976232
100.13126836922125
100.62937509127379
102.85567696405069
111.77940062580677
139.53718029748083
139.537216854256
111.77940484893278
102.8556882708978
100.62938526402779
100.13127696604269
100.02641970333097
100.00519026901166
100.00100717041933
100.00019919575685
100.00004550167115
100.00001661627721
100.00001124052558
100.00001024814875
100.00001006623332
100.00001003326182
100.00001002832977
100.00001003324522
100.00001006615523
100.00001024781106
100.00001123914298
100.0000166110607
100.00004548383089
100.00019914558288
100.00100704442998
100.0051900108008
100.02641915416157
100.13127611964502
100.62938261274564
102.85568409156168
111.77940771252041
139.53716996244734
139.53725856623782
111.77944799081673
102.8557334939732
100.62943038761804
100.13132163002179
100.02646388291065
100.0052340893666
100.00105076877746
100.00024269488237
100.00008896035986
100.00006006449264
100.00005468610581
100.00005369315463
100.00005351111892
100.00005347812315
100.00005347318492
100.00005347809164
100.00005351096338
100.00005369243678
100.00005468293585
100.00006005119587
100.0000889097426
100.00024251842274
100.00105028099523
100.00523292921751
100.02646149495376
100.13131753379307
100.6294227666518
102.8557227020952
111.77944306607633
139.5372037191023
139.53749074687
111.77968640969304
102.85597337341656
100.6296682522993
100.131556319864
100.02669577117199
100.00546399482914
100.00127973889316
100.00047125269737
100.00031741753313
100.0002884969109
100.0002831133607
100.00028211936566
100.00028193712983
100.00028190409654
100.00028189914873
100.00028190404053
100.00028193684601
100.00028211798951
100.00028310687169
100.00028846754593
100.00031729161134
100.00047076358011
100.00127799138485
100.00545935048898
100.02668503799877
100.1315363194333
100.62963459871297
102.8559262650589
111.77963799800075
139.53739061751511
139.5387100709036
111.78093767535918
102.8572234109571
100.63090177913305
100.1327701974469
100.0278926459311
100.00665228323514
100.00246379711913
100.00165435989301
100.0015002966562
100.00147133095216
100.00146593863805
100.00146494302801
100.00146476050904
100.00146472742567
100.00146472246084
100.00146472732779
100.00146476002293
100.00146494062889
100.0014659267407
100.00147127344127
100.00150003001463
100.00165318243815
100.00245911583073
100.00663506688493
100.02784883208878
100.13267492081371
100.63073648955442
102.85698041451002
111.7806464649763
139.53835582150467
139.54501212042646
111.78735796355714
102.86360651187952
100.63717332766483
100.13890474729402
100.03395166469527
100.01266756464804
100.00847031669605
100.0076588342447
100.00750439310889
100.00747535719069
100.00746995250948
100.00746895485487
100.00746877199362
100.00746873885566
100.00746873387557
100.00746873865403
100.00746877117409
100.00746895094954
100.00746993285452
100.00747525706399
100.00750389683438
100.00765646741912
100.00845950796466
100.01262347238942
100.03378228765696
100.13850194163358
100.63635344409904
102.86234209714506
111.78572073103415
139.54324046739833
139.5766255391896
111.81949675161208
102.89543588386213
100.66800709360096
100.16912261289534
100.06371339584192
100.04235179434565
100.03813690998318
100.03732244455654
100.03716747763703
100.03713835427043
100.03713293617066
100.03713193614665
100.03713175311977
100.03713172012237
100.03713171498651
100.03713171954197
100.03713175134989
100.03713193014536
100.03713290604982
100.03713819878247
100.0371666638585
100.0373183006912
100.03811654125056
100.04225516605818
100.06330675668218
100.167465029651
100.66442163890811
102.88878537823875
111.8107014029539
139.5668275492426
139.7297732933139
111.97628161013911
103.04627594983646
100.81457339063917
100.31089273697343
100.20484555518489
100.18334067028742
100.17910441264002
100.17828640548647
100.17813089511088
100.17810169945749
100.17809626683456
100.17809526560742
100.17809508350624
100.1780950519957
100.17809504697601
100.17809504889698
100.17809507893614
100.17809525286783
100.17809622662402
100.17810147628914
100.17812971814855
100.17828007887076
100.1790713015125
100.18317280645368
100.20401291889111
100.30726651678337
100.79845902098415
103.0161290338207
111.92696235164983
139.67815536495243
140.45489397081215
112.68032586820128
103.73312213883825
101.45073012048002
100.94253108279415
100.83542836595781
100.81379605473208
100.8095401648553
100.80871953083022
100.80856379989866
100.8085345516052
100.80852911528916
100.80852810366751
100.80852792594557
100.80852791270246
100.80852792262472
100.80852789533635
100.80852789385155
100.80852809471995
100.80852902836007
100.80853429445271
100.80856222659064
100.80871112691247
100.80949382718968
100.81354708222963
100.83412823665167
100.93574432202996
101.42012154476889
103.57847853945253
112.45250907431063
140.14417786180869
143.37184848596544
115.77151800036027
106.29002433422083
103.98778405579287
103.4731089015855
103.36555790400286
103.34386215858885
103.33960137776329
103.3387820707319
103.33862645655145
103.33859747531434
103.3385919070698
103.3385905735132
103.33859061645812
103.33859096981035
103.33859067794785
103.33859063215756
103.33859062608533
103.33859049625079
103.33859196342536
103.33859673160258
103.33862501153331
103.33877175163732
103.33954594399148
103.34354983698044
103.36384182239806
103.46396476289671
103.93716056056623
106.05720644332453
114.32419936856797
142.05162278697333
156.66873675068456
123.54351448760931
114.20886006987976
111.88150259988271
111.36936104368908
111.26211601683576
111.2405186601547
111.23629604989996
111.23546801311508
111.23532021715087
111.23529806172576
111.23528243728292
111.23528134233548
111.2352879458056
111.2352849038287
111.23528459167838
111.235284704068
111.23528458007641
111.23528453743835
111.23528242956675
111.23529587619932
111.2353151429977
111.23546573083111
111.23622999930673
111.2401897503082
111.26025989606605
111.35901665670404
111.82703182655321
113.88701797377202
122.17131191843661
143.82377926820098
