# vtk DataFile Version 2.0
Unstructured Grid Example
ASCII
DATASET UNSTRUCTURED_GRID

POINTS 961.0 float
0.100000001 0.00499999989 0
0.0966666639 0.00499999989 0
0.0933333337 0.00499999989 0
0.0900000036 0.00499999989 0
0.086666666 0.00499999989 0
0.0833333358 0.00499999989 0
0.0799999982 0.00499999989 0
0.0766666681 0.00499999989 0
0.0733333305 0.00499999989 0
0.0700000003 0.00499999989 0
0.0666666701 0.00499999989 0
0.0633333325 0.00499999989 0
0.0599999987 0.00499999989 0
0.0566666685 0.00499999989 0
0.0533333346 0.00499999989 0
0.0500000007 0.00499999989 0
0.0466666669 0.00499999989 0
0.043333333 0.00499999989 0
0.0399999991 0.00499999989 0
0.0366666652 0.00499999989 0
0.0333333351 0.00499999989 0
0.0299999993 0.00499999989 0
0.0266666673 0.00499999989 0
0.0233333334 0.00499999989 0
0.0199999996 0.00499999989 0
0.0166666675 0.00499999989 0
0.0133333337 0.00499999989 0
0.00999999978 0.00499999989 0
0.00666666683 0.00499999989 0
0.00333333341 0.00499999989 0
0.0 0.00499999989 0
0.100000001 0.00166666671 0
0.0966666639 0.00166666671 0
0.0933333337 0.00166666671 0
0.0900000036 0.00166666671 0
0.086666666 0.00166666671 0
0.0833333358 0.00166666671 0
0.0799999982 0.00166666671 0
0.0766666681 0.00166666671 0
0.0733333305 0.00166666671 0
0.0700000003 0.00166666671 0
0.0666666701 0.00166666671 0
0.0633333325 0.00166666671 0
0.0599999987 0.00166666671 0
0.0566666685 0.00166666671 0
0.0533333346 0.00166666671 0
0.0500000007 0.00166666671 0
0.0466666669 0.00166666671 0
0.043333333 0.00166666671 0
0.0399999991 0.00166666671 0
0.0366666652 0.00166666671 0
0.0333333351 0.00166666671 0
0.0299999993 0.00166666671 0
0.0266666673 0.00166666671 0
0.0233333334 0.00166666671 0
0.0199999996 0.00166666671 0
0.0166666675 0.00166666671 0
0.0133333337 0.00166666671 0
0.00999999978 0.00166666671 0
0.00666666683 0.00166666671 0
0.00333333341 0.00166666671 0
0.0 0.00166666671 0
0.100000001 -0.00166666671 0
0.0966666639 -0.00166666671 0
0.0933333337 -0.00166666671 0
0.0900000036 -0.00166666671 0
0.086666666 -0.00166666671 0
0.0833333358 -0.00166666671 0
0.0799999982 -0.00166666671 0
0.0766666681 -0.00166666671 0
0.0733333305 -0.00166666671 0
0.0700000003 -0.00166666671 0
0.0666666701 -0.00166666671 0
0.0633333325 -0.00166666671 0
0.0599999987 -0.00166666671 0
0.0566666685 -0.00166666671 0
0.0533333346 -0.00166666671 0
0.0500000007 -0.00166666671 0
0.0466666669 -0.00166666671 0
0.043333333 -0.00166666671 0
0.0399999991 -0.00166666671 0
0.0366666652 -0.00166666671 0
0.0333333351 -0.00166666671 0
0.0299999993 -0.00166666671 0
0.0266666673 -0.00166666671 0
0.0233333334 -0.00166666671 0
0.0199999996 -0.00166666671 0
0.0166666675 -0.00166666671 0
0.0133333337 -0.00166666671 0
0.00999999978 -0.00166666671 0
0.00666666683 -0.00166666671 0
0.00333333341 -0.00166666671 0
0.0 -0.00166666671 0
0.100000001 -0.00499999989 0
0.0966666639 -0.00499999989 0
0.0933333337 -0.00499999989 0
0.0900000036 -0.00499999989 0
0.086666666 -0.00499999989 0
0.0833333358 -0.00499999989 0
0.0799999982 -0.00499999989 0
0.0766666681 -0.00499999989 0
0.0733333305 -0.00499999989 0
0.0700000003 -0.00499999989 0
0.0666666701 -0.00499999989 0
0.0633333325 -0.00499999989 0
0.0599999987 -0.00499999989 0
0.0566666685 -0.00499999989 0
0.0533333346 -0.00499999989 0
0.0500000007 -0.00499999989 0
0.0466666669 -0.00499999989 0
0.043333333 -0.00499999989 0
0.0399999991 -0.00499999989 0
0.0366666652 -0.00499999989 0
0.0333333351 -0.00499999989 0
0.0299999993 -0.00499999989 0
0.0266666673 -0.00499999989 0
0.0233333334 -0.00499999989 0
0.0199999996 -0.00499999989 0
0.0166666675 -0.00499999989 0
0.0133333337 -0.00499999989 0
0.00999999978 -0.00499999989 0
0.00666666683 -0.00499999989 0
0.00333333341 -0.00499999989 0
0.0 -0.00499999989 0
0.100000001 -0.00833333377 0
0.0966666639 -0.00833333377 0
0.0933333337 -0.00833333377 0
0.0900000036 -0.00833333377 0
0.086666666 -0.00833333377 0
0.0833333358 -0.00833333377 0
0.0799999982 -0.00833333377 0
0.0766666681 -0.00833333377 0
0.0733333305 -0.00833333377 0
0.0700000003 -0.00833333377 0
0.0666666701 -0.00833333377 0
0.0633333325 -0.00833333377 0
0.0599999987 -0.00833333377 0
0.0566666685 -0.00833333377 0
0.0533333346 -0.00833333377 0
0.0500000007 -0.00833333377 0
0.0466666669 -0.00833333377 0
0.043333333 -0.00833333377 0
0.0399999991 -0.00833333377 0
0.0366666652 -0.00833333377 0
0.0333333351 -0.00833333377 0
0.0299999993 -0.00833333377 0
0.0266666673 -0.00833333377 0
0.0233333334 -0.00833333377 0
0.0199999996 -0.00833333377 0
0.0166666675 -0.00833333377 0
0.0133333337 -0.00833333377 0
0.00999999978 -0.00833333377 0
0.00666666683 -0.00833333377 0
0.00333333341 -0.00833333377 0
0.0 -0.00833333377 0
0.100000001 -0.0116666667 0
0.0966666639 -0.0116666667 0
0.0933333337 -0.0116666667 0
0.0900000036 -0.0116666667 0
0.086666666 -0.0116666667 0
0.0833333358 -0.0116666667 0
0.0799999982 -0.0116666667 0
0.0766666681 -0.0116666667 0
0.0733333305 -0.0116666667 0
0.0700000003 -0.0116666667 0
0.0666666701 -0.0116666667 0
0.0633333325 -0.0116666667 0
0.0599999987 -0.0116666667 0
0.0566666685 -0.0116666667 0
0.0533333346 -0.0116666667 0
0.0500000007 -0.0116666667 0
0.0466666669 -0.0116666667 0
0.043333333 -0.0116666667 0
0.0399999991 -0.0116666667 0
0.0366666652 -0.0116666667 0
0.0333333351 -0.0116666667 0
0.0299999993 -0.0116666667 0
0.0266666673 -0.0116666667 0
0.0233333334 -0.0116666667 0
0.0199999996 -0.0116666667 0
0.0166666675 -0.0116666667 0
0.0133333337 -0.0116666667 0
0.00999999978 -0.0116666667 0
0.00666666683 -0.0116666667 0
0.00333333341 -0.0116666667 0
0.0 -0.0116666667 0
0.100000001 -0.0149999997 0
0.0966666639 -0.0149999997 0
0.0933333337 -0.0149999997 0
0.0900000036 -0.0149999997 0
0.086666666 -0.0149999997 0
0.0833333358 -0.0149999997 0
0.0799999982 -0.0149999997 0
0.0766666681 -0.0149999997 0
0.0733333305 -0.0149999997 0
0.0700000003 -0.0149999997 0
0.0666666701 -0.0149999997 0
0.0633333325 -0.0149999997 0
0.0599999987 -0.0149999997 0
0.0566666685 -0.0149999997 0
0.0533333346 -0.0149999997 0
0.0500000007 -0.0149999997 0
0.0466666669 -0.0149999997 0
0.043333333 -0.0149999997 0
0.0399999991 -0.0149999997 0
0.0366666652 -0.0149999997 0
0.0333333351 -0.0149999997 0
0.0299999993 -0.0149999997 0
0.0266666673 -0.0149999997 0
0.0233333334 -0.0149999997 0
0.0199999996 -0.0149999997 0
0.0166666675 -0.0149999997 0
0.0133333337 -0.0149999997 0
0.00999999978 -0.0149999997 0
0.00666666683 -0.0149999997 0
0.00333333341 -0.0149999997 0
0.0 -0.0149999997 0
0.100000001 -0.0183333326 0
0.0966666639 -0.0183333326 0
0.0933333337 -0.0183333326 0
0.0900000036 -0.0183333326 0
0.086666666 -0.0183333326 0
0.0833333358 -0.0183333326 0
0.0799999982 -0.0183333326 0
0.0766666681 -0.0183333326 0
0.0733333305 -0.0183333326 0
0.0700000003 -0.0183333326 0
0.0666666701 -0.0183333326 0
0.0633333325 -0.0183333326 0
0.0599999987 -0.0183333326 0
0.0566666685 -0.0183333326 0
0.0533333346 -0.0183333326 0
0.0500000007 -0.0183333326 0
0.0466666669 -0.0183333326 0
0.043333333 -0.0183333326 0
0.0399999991 -0.0183333326 0
0.0366666652 -0.0183333326 0
0.0333333351 -0.0183333326 0
0.0299999993 -0.0183333326 0
0.0266666673 -0.0183333326 0
0.0233333334 -0.0183333326 0
0.0199999996 -0.0183333326 0
0.0166666675 -0.0183333326 0
0.0133333337 -0.0183333326 0
0.00999999978 -0.0183333326 0
0.00666666683 -0.0183333326 0
0.00333333341 -0.0183333326 0
0.0 -0.0183333326 0
0.100000001 -0.0216666665 0
0.0966666639 -0.0216666665 0
0.0933333337 -0.0216666665 0
0.0900000036 -0.0216666665 0
0.086666666 -0.0216666665 0
0.0833333358 -0.0216666665 0
0.0799999982 -0.0216666665 0
0.0766666681 -0.0216666665 0
0.0733333305 -0.0216666665 0
0.0700000003 -0.0216666665 0
0.0666666701 -0.0216666665 0
0.0633333325 -0.0216666665 0
0.0599999987 -0.0216666665 0
0.0566666685 -0.0216666665 0
0.0533333346 -0.0216666665 0
0.0500000007 -0.0216666665 0
0.0466666669 -0.0216666665 0
0.043333333 -0.0216666665 0
0.0399999991 -0.0216666665 0
0.0366666652 -0.0216666665 0
0.0333333351 -0.0216666665 0
0.0299999993 -0.0216666665 0
0.0266666673 -0.0216666665 0
0.0233333334 -0.0216666665 0
0.0199999996 -0.0216666665 0
0.0166666675 -0.0216666665 0
0.0133333337 -0.0216666665 0
0.00999999978 -0.0216666665 0
0.00666666683 -0.0216666665 0
0.00333333341 -0.0216666665 0
0.0 -0.0216666665 0
0.100000001 -0.0250000004 0
0.0966666639 -0.0250000004 0
0.0933333337 -0.0250000004 0
0.0900000036 -0.0250000004 0
0.086666666 -0.0250000004 0
0.0833333358 -0.0250000004 0
0.0799999982 -0.0250000004 0
0.0766666681 -0.0250000004 0
0.0733333305 -0.0250000004 0
0.0700000003 -0.0250000004 0
0.0666666701 -0.0250000004 0
0.0633333325 -0.0250000004 0
0.0599999987 -0.0250000004 0
0.0566666685 -0.0250000004 0
0.0533333346 -0.0250000004 0
0.0500000007 -0.0250000004 0
0.0466666669 -0.0250000004 0
0.043333333 -0.0250000004 0
0.0399999991 -0.0250000004 0
0.0366666652 -0.0250000004 0
0.0333333351 -0.0250000004 0
0.0299999993 -0.0250000004 0
0.0266666673 -0.0250000004 0
0.0233333334 -0.0250000004 0
0.0199999996 -0.0250000004 0
0.0166666675 -0.0250000004 0
0.0133333337 -0.0250000004 0
0.00999999978 -0.0250000004 0
0.00666666683 -0.0250000004 0
0.00333333341 -0.0250000004 0
0.0 -0.0250000004 0
0.100000001 -0.0283333343 0
0.0966666639 -0.0283333343 0
0.0933333337 -0.0283333343 0
0.0900000036 -0.0283333343 0
0.086666666 -0.0283333343 0
0.0833333358 -0.0283333343 0
0.0799999982 -0.0283333343 0
0.0766666681 -0.0283333343 0
0.0733333305 -0.0283333343 0
0.0700000003 -0.0283333343 0
0.0666666701 -0.0283333343 0
0.0633333325 -0.0283333343 0
0.0599999987 -0.0283333343 0
0.0566666685 -0.0283333343 0
0.0533333346 -0.0283333343 0
0.0500000007 -0.0283333343 0
0.0466666669 -0.0283333343 0
0.043333333 -0.0283333343 0
0.0399999991 -0.0283333343 0
0.0366666652 -0.0283333343 0
0.0333333351 -0.0283333343 0
0.0299999993 -0.0283333343 0
0.0266666673 -0.0283333343 0
0.0233333334 -0.0283333343 0
0.0199999996 -0.0283333343 0
0.0166666675 -0.0283333343 0
0.0133333337 -0.0283333343 0
0.00999999978 -0.0283333343 0
0.00666666683 -0.0283333343 0
0.00333333341 -0.0283333343 0
0.0 -0.0283333343 0
[...]
POINT_DATA 961.0
SCALARS Temp float 1
LOOKUP_TABLE default
197.2669721463456
168.05278672216642
155.60919500817025
151.44474500899014
150.26045430115738
149.95699141117527
149.8845358691532
149.86809000374373
149.86449589291732
149.86373315819827
149.86357503375004
149.8635428714197
149.86353643241804
149.86353516069292
149.86353491399373
149.86353487515626
149.8635349139937
149.86353516069252
149.86353643241998
149.86354287143072
149.8635750336286
149.86373315822092
149.86449589411322
149.86809000024587
149.88453589382172
149.95699126216812
150.26045436313544
151.4447428292036
155.60919415593548
168.05281259961475
197.26696223728635
168.05285968883237
137.9753176202962
125.15036384582636
120.85363594930855
119.63067007981074
119.3170899795772
119.2421798101428
119.22516968624261
119.22145097177925
119.22066156437948
119.22049786943026
119.22046456686266
119.22045789831114
119.22045658102704
119.22045632545213
119.2204562852128
119.220456325452
119.22045658102672
119.22045789831313
119.22046456687386
119.2204978693034
119.22066156439669
119.2214509729817
119.22516968242128
119.24217983454473
119.31708981883453
119.63067011105257
120.8536334495734
125.15036224915112
137.97532758260448
168.05281566642694
155.60925136451692
125.15035858929748
112.13947918325124
107.77110351416533
106.52530948538744
106.20537002354189
106.12884198430568
106.11144593983673
106.10763944728471
106.10683078738455
106.10666298908097
106.10662883189313
106.10662198870043
106.106620636299
106.10662037380436
106.10662033246334
106.10662037380423
106.10662063629874
106.10662198870243
106.10662883190409
106.1066629889479
106.10683078738545
106.10763944842151
106.1114459354043
106.12884200630577
106.20536984375535
106.52530942761497
107.77110054504946
112.13947476594618
125.15036154793638
155.60919587227164
151.44480010179612
120.8536315098579
107.77110577299231
103.37136676073412
102.11431048330495
101.79092317114944
101.71345393101254
101.69582082793966
101.69195804816391
101.69113660569884
101.69096600333651
101.69093124781075
101.69092427978421
101.69092290182682
101.69092263421791
101.6909225920533
101.69092263421777
101.69092290182637
101.69092427978602
101.69093124782115
101.6909660031973
101.69113660567733
101.69195804919498
101.69582082277815
101.71345394978935
101.79092297096484
102.11431033806748
103.37136333982222
107.77110011800569
120.85363220292123
151.44474189186448
150.26051407702104
119.63066928754299
106.52531519589115
102.11431401506623
100.85264495485784
100.5276662704834
100.44971924009471
100.43195663878141
100.42806127597943
100.42723208101619
100.42705971167828
100.42702456684437
100.42701751535918
100.4270161199123
100.42701584873278
100.427015805985
100.42701584873275
100.42701611991195
100.42701751536099
100.42702456685417
100.42705971153333
100.42723208097173
100.42806127689968
100.43195663296954
100.44971925596411
100.52766605539202
100.85264474886534
102.11431040524613
106.52530914842643
119.6306694225239
150.2604551972833
149.95705605751743
119.31708989368549
106.20537584554408
101.7909267559616
100.52766632991677
100.2020645470445
100.1239077870079
100.10608280919807
100.10217055111228
100.10133708970952
100.10116369944133
100.10112832037024
100.1011212169211
100.10111981026122
100.10111953673486
100.10111949359668
100.10111953673479
100.10111981026088
100.10112121692269
100.10112832037944
100.10116369929173
100.10133708964595
100.10217055194363
100.10608280292034
100.12390780097273
100.2020643235604
100.52766609947163
101.79092308678695
106.2053696978751
119.31708989830928
149.95699702748144
149.8846006417468
119.2421797528785
106.12884790154833
101.7134576833337
100.44971948979403
100.12390798301169
100.04567173162435
100.02782042734428
100.02390037243275
100.02306479363834
100.02289086544991
100.02285535667123
100.02284822321622
100.02284680984627
100.02284653487219
100.02284649148812
100.02284653487206
100.02284680984573
100.02284822321774
100.02285535667983
100.0228908652971
100.02306479356153
100.02390037320582
100.02782042080018
100.04567174461118
100.12390775627642
100.44971925170418
101.71345399862382
106.12884173028459
119.24217972911204
149.88454157914086
149.86814906673166
119.22516823190382
106.11145157250417
101.69582451786563
100.43195686359543
100.10608298709572
100.02782041031256
100.0099593702499
100.00603612680908
100.00519960505248
100.00502541968878
100.00498984510443
100.00498269564548
100.00498127854084
100.00498100273158
100.004980959202
100.00498100273138
100.00498127854036
100.00498269564689
100.00498984511263
100.00502541953385
100.00519960496774
100.0060361275507
100.0099593635812
100.02782042292847
100.10608275934416
100.43195662347524
101.69582082943563
106.11144539603774
119.22516820216698
149.86808999734467
149.86454894644143
119.22144824959385
106.10764488675754
101.69196170821057
100.42806149956711
100.102170733174
100.02390036061496
100.00603613220694
100.00211173208415
100.00127483454773
100.00110053803958
100.00106493299046
100.00105777567674
100.00105635664569
100.00105608038707
100.00105603677697
100.00105608038699
100.00105635664514
100.00105777567813
100.00106493299846
100.00110053788353
100.00127483445911
100.00211173281181
100.00603612549213
100.02390037311481
100.1021705051475
100.4280612589547
101.69195801894595
106.1076387091882
119.22144821864
149.86448987568025
149.86378671856215
119.22065935624383
106.10683625955568
101.69114025978944
100.42723230036675
100.10133726955856
100.02306478021436
100.0051996089738
100.00127483309029
100.00043780132262
100.00026346146687
100.0002278435848
100.00022068273509
100.0002192627858
100.00021898630247
100.00021894265072
100.00021898630241
100.00021926278524
100.00022068273633
100.00022784359263
100.00026346131042
100.00043780123232
100.00127483381296
100.00519960224457
100.02306479268233
100.10133704146398
100.42723205964256
101.6911365703453
106.10683008175972
119.22065932504772
149.86372764752505
149.8636387982572
119.22049689080455
106.10666861099716
101.69096966843752
100.4270599309485
100.1011638792036
100.02289085206894
100.00502542368397
100.00110053665946
100.00026346154394
100.00008910639838
100.00005348360152
100.00004632129486
100.00004490094244
100.00004462435486
100.00004458068297
100.00004462435463
100.00004490094177
100.00004632129614
100.00005348360928
100.00008910624173
100.00026346145309
100.00110053738037
100.00502541695057
100.02289086452899
100.10116365109323
100.42705969020004
101.69096597895596
106.10666243315559
119.22049685956414
149.8635797271574
149.86360716299782
119.22046364171122
106.10663445869758
101.69093491234294
100.4270247875201
100.10112850071457
100.02285534354941
100.00498984926436
100.00106493175278
100.00022784379944
100.00005348373818
100.00001785922582
100.00001069636977
100.00000927585435
100.00000899922215
100.00000895554129
100.000008999222
100.00000927585374
100.0000106963711
100.00001785923362
100.0000534835815
100.00022784370843
100.00106493247331
100.00498984252995
100.0228553560075
100.10112827260059
100.42702454676655
101.69093122285385
106.10662828084708
119.22046361046174
149.8635480918871
149.86359050047685
119.22045576067686
106.10662744962532
101.69092794588703
100.42701774001618
100.10112139854935
100.02284821038897
100.00498269986518
100.00105777444917
100.00022068294992
100.00004632142988
100.00001069636785
100.00000353332176
100.00000211274568
100.00000183609578
100.00000179241123
100.00000183609566
100.00000211274514
100.0000035333231
100.00001069637565
100.00004632127312
100.00022068285887
100.00105777516951
100.00498269313047
100.02284822284669
100.10112117043462
100.42701749926155
101.69092425639641
106.10662127177314
119.2204557294226
149.86353142937324
149.86358800118933
119.22045357576832
106.10662618082569
101.69092660321282
100.42701635467974
100.10111999408318
100.0228467974632
100.00498128284482
100.0010563554329
100.00021926300255
100.00004490107673
100.00000927585133
100.00000211274461
100.00000069214781
100.00000041549133
100.00000037180553
100.0000004154913
100.00000069214725
100.00000211274603
100.00000927585924
100.00004490092005
100.00021926291139
100.00105635615317
100.00498127611007
100.0228468099208
100.10111976596833
100.42701611392484
101.69092291372178
106.10662000297295
119.22045354451359
149.8635289300876
149.8635903909356
119.22045589725013
106.10662633918567
101.69092641739908
100.42701609788931
100.10111972319413
100.0228465229692
100.00498100712296
100.00105607919035
100.00021898652248
100.00004462449033
100.00000899921986
100.0000018360954
100.00000041549201
100.00000013883347
100.000000095147
100.00000013883336
100.00000041549147
100.00000183609667
100.0000089992276
100.00004462433361
100.00021898643139
100.00105607991075
100.00498100038837
100.02284653542682
100.10111949507919
100.42701585713428
101.6909227279078
106.1066201613326
119.2204558659946
149.8635313198289
149.86361105584544
119.22045852091125
106.10662678030607
101.69092644651703
100.42701606670029
100.10111968201964
100.02284647992585
100.00498096365358
100.00105603559093
100.00021894287262
100.00004458081897
100.00000895553929
100.00000179241094
100.00000037180624
100.00000009514704
100.00000005146065
100.00000009514706
100.00000037180561
100.00000179241222
100.00000895554696
100.00004458066219
100.00021894278147
100.00105603631127
100.00498095691887
100.02284649238354
100.10111945390467
100.42701582594539
101.69092275702553
106.10662060245262
119.22045848966157
149.86355198472035
149.863611104341
119.22045856968734
106.10662682817576
101.69092649212031
100.42701611096388
100.10111972544962
100.02284652337119
100.00498100719395
100.00105607920295
100.00021898652474
100.00004462449081
100.00000899921996
100.00000183609544
100.00000041549205
100.00000013883349
100.00000009514706
100.00000013883331
100.00000041549151
100.00000183609664
100.00000899922772
100.00004462433401
100.00021898643362
100.00105607992329
100.00498100045932
100.02284653582879
100.10111949733474
100.42701587020893
101.69092280262892
106.10662065032245
119.22045853843785
149.86355203321614
149.86359068962602
119.22045620392535
106.10662663325357
101.69092670203807
100.42701637290035
100.10111999756764
100.02284679810204
100.00498128296215
100.00105635545431
100.00021926300656
100.00004490107767
100.00000927585171
100.0000021127449
100.00000069214803
100.00000041549163
100.00000037180561
100.00000041549146
100.00000069214741
100.00000211274619
100.00000927585945
100.00004490092091
100.00021926291545
100.00105635617466
100.00498127622745
100.02284681055961
100.10111976945281
100.42701613214552
101.69092301254688
106.10662045540067
119.22045617267018
149.86353161851954
149.863589537211
119.22045507534934
106.1066276700749
101.69092800682702
100.42701775588394
100.1011214018252
100.02284821104824
100.00498269999348
100.0010577744746
100.00022068295564
100.00004632143177
100.00001069636909
100.0000035333229
100.00000211274674
100.00000183609691
100.00000179241229
100.00000183609671
100.00000211274619
100.00000353332413
100.00001069637679
100.00004632127512
100.00022068286454
100.00105777519501
100.00498269325891
100.02284822350605
100.10112117371078
100.42701751512959
101.69092431733667
106.10662149222301
119.2204550440955
149.86353046611018
149.86359751686388
119.22046349709306
106.10663441729487
101.69093494342188
100.42702479641017
100.10112850302613
100.02285534407285
100.00498984938186
100.0010649317818
100.00022784381002
100.00005348374502
100.00001785923195
100.00001069637572
100.00000927586032
100.00000899922799
100.00000895554729
100.00000899922793
100.00000927585975
100.00001069637707
100.0000178592398
100.0000534835883
100.00022784371902
100.0010649325024
100.00498984264773
100.02285535653148
100.10112827491315
100.42702455565822
101.69093125393493
106.10662823944736
119.22046346584365
149.86353844576402
149.86364795080044
119.22049701319051
106.10666870625151
101.69096967633489
100.427059935084
100.10116388057871
100.02289085251422
100.00502542385249
100.00110053675837
100.0002634616269
100.00008910647784
100.00005348368033
100.00004632137356
100.00004490102098
100.00004462443346
100.00004458076164
100.00004462443339
100.00004490102042
100.00004632137485
100.00005348368822
100.00008910632128
100.00026346153608
100.00110053747966
100.0050254171201
100.02289086497643
100.10116365247266
100.4270596943432
101.69096598686484
106.10666252842512
119.22049698197098
149.86358887971195
149.8637881991946
119.22066042736488
106.10683630193503
101.69114026460792
100.42723230244836
100.10133727047996
100.0230647804418
100.00519960896725
100.00127483302046
100.00043780123795
100.00026346137896
100.00022784349616
100.00022068264636
100.00021926269709
100.00021898621381
100.00021894256192
100.00021898621365
100.00021926269658
100.00022068264764
100.00022784350402
100.00026346122245
100.00043780114768
100.00127483374358
100.00519960224051
100.02306479291761
100.10133704240366
100.42723206175877
101.69113657521893
106.10683012421492
119.22066039625919
149.86372912824837
149.86454835863375
119.22144768378085
106.10764482625511
101.69196171869936
100.42806150614096
100.10217073643554
100.02390036270721
100.00603613399342
100.00211173380086
100.00127483624948
100.00110053973819
100.00106493468864
100.00105777737475
100.00105635834363
100.00105608208507
100.00105603847487
100.00105608208489
100.00105635834309
100.00105777737609
100.0010649346965
100.00110053958208
100.00127483616033
100.00211173452855
100.006036127284
100.02390037523125
100.10217050847787
100.42806126567537
101.69195802968942
106.10763864905394
119.22144765327907
149.8644892883445
149.86814318509894
119.22516693554886
106.11145163115447
101.69582455157652
100.43195687324571
100.10608298769375
100.02782040887415
100.00995936840187
100.00603612488266
100.00519960311048
100.00502541774367
100.00498984315864
100.00498269369942
100.00498127659488
100.00498100078558
100.00498095725598
100.00498100078543
100.00498127659438
100.00498269370085
100.00498984316653
100.00502541758787
100.0051996030231
100.00603612561866
100.00995936173301
100.02782042154395
100.10608276016222
100.43195663369994
101.69582086426006
106.11144545642267
119.22516690801704
149.8680841180558
149.88459420026032
119.24218179632793
106.1288482680125
101.71345781850764
100.44971955264127
100.12390803250742
100.04567177880232
100.02782047415556
100.0239004191782
100.02306484037133
100.02289091218044
100.02285540340101
100.02284826994581
100.02284685657581
100.0228465816017
100.02284653821773
100.0228465816017
100.02284685657537
100.02284826994725
100.02285540340907
100.02289091202532
100.02306484028641
100.0239004199265
100.02782046755728
100.04567179178899
100.12390780628785
100.44971931646496
101.71345413833161
106.12884210451641
119.2421817830902
149.88453514891899
149.95708533262746
119.31709235761956
106.20537653204536
101.7909268983705
100.52766639865145
100.2020646057725
100.12390784465057
100.10608286663869
100.10217060851048
100.10133714709677
100.10116375682594
100.10112837775412
100.10112127430477
100.10111986764494
100.1011195941185
100.10111955098031
100.10111959411844
100.10111986764458
100.10112127430625
100.10112837776215
100.10116375667181
100.10133714701487
100.10217060927275
100.10608286014079
100.12390785809951
100.20206438228843
100.52766617304111
101.79092324499254
106.2053704173846
119.31709240996491
149.95702635591257
150.2605113406131
119.6306712560592
106.52531500491939
102.11431366134526
100.85264460103423
100.52766592256
100.44971889272979
100.43195629141098
100.42806092857062
100.42723173359342
100.42705936425145
100.4270242194166
100.42701716793107
100.42701577248414
100.42701550130474
100.42701545855681
100.4270155013047
100.42701577248373
100.42701716793255
100.42702421942467
100.42705936409861
100.42723173351418
100.42806092934397
100.43195628502437
100.44971890668543
100.5276657026336
100.85264439504158
102.11431009576422
106.52530907752123
119.63067160243506
150.26045269611774
151.44479543082494
120.85363015090721
107.77110641416286
103.37136801188963
102.11431188200572
101.7909245885434
101.7134553509742
101.69582224809855
101.69195946831704
101.69113802584256
101.69096742347729
101.6909326679505
101.69092569992384
101.69092432196638
101.69092405435758
101.69092401219292
101.69092405435735
101.69092432196588
101.69092569992519
101.69093266795846
101.6909674233263
101.6911380257658
101.69195946909318
101.69582224182336
101.71345536521682
101.7909243725615
102.1143116925286
103.37136459097778
107.77110115125112
120.85363163048353
151.44473829362195
155.6092356537903
125.15034900570397
112.13947531285338
107.7711008928496
106.52530698808448
106.2053675428344
106.12883950428846
106.11144345963699
106.10763696698608
106.10682830705723
106.10666050874636
106.10662635155695
106.10661950836402
106.10661815596238
106.10661789346771
106.10661785212658
106.10661789346754
106.10661815596191
106.10661950836526
106.10662635156491
106.10666050859811
106.10682830698231
106.10763696775476
106.11144345346978
106.12883951852055
106.2053673300387
106.5253068102443
107.77109753165846
112.13947089554738
125.15035531306286
155.6091837937244
168.05283653416055
137.97533041112726
125.15038263958174
120.8536549859602
119.63068921359137
119.31710912206715
119.24219895391794
119.22518883003984
119.22147011555317
119.22068070814291
119.22051701319076
119.22048371062246
119.2204770420709
119.22047572478678
119.22047546921182
119.22047542897243
119.22047546921156
119.22047572478625
119.22047704207225
119.22048371063035
119.2205170130463
119.22068070806986
119.22147011630366
119.2251888240116
119.2421989677873
119.31710891361143
119.63068903343456
120.85365169970864
125.15037769417276
137.97534037341623
168.05282051501177
197.2669648490442
168.0527944729132
155.60919570965885
151.44474582479782
150.26045507930996
149.95699218651856
149.88453664254217
149.86809077661215
149.86449666564275
149.86373393088962
149.8635758064337
149.86354364410164
149.86353720509968
149.86353593337435
149.86353568667528
149.86353564783775
149.86353568667522
149.86353593337387
149.86353720510095
149.8635436441092
149.86357580629408
149.863733930819
149.86449666636764
149.8680907707769
149.88453665594852
149.9569919841661
150.26045490604292
151.4447425722857
155.6091912252313
168.05279234710753
197.26695494001257
