# vtk DataFile Version 2.0
Unstructured Grid Example
ASCII
DATASET UNSTRUCTURED_GRID

POINTS 961 float
0.100000001 0.00499999989 0
0.0966666639 0.00499999989 0
0.0933333337 0.00499999989 0
0.0900000036 0.00499999989 0
0.086666666 0.00499999989 0
0.0833333358 0.00499999989 0
0.0799999982 0.00499999989 0
0.0766666681 0.00499999989 0
0.0733333305 0.00499999989 0
0.0700000003 0.00499999989 0
0.0666666701 0.00499999989 0
0.0633333325 0.00499999989 0
0.0599999987 0.00499999989 0
0.0566666685 0.00499999989 0
0.0533333346 0.00499999989 0
0.0500000007 0.00499999989 0
0.0466666669 0.00499999989 0
0.043333333 0.00499999989 0
0.0399999991 0.00499999989 0
0.0366666652 0.00499999989 0
0.0333333351 0.00499999989 0
0.0299999993 0.00499999989 0
0.0266666673 0.00499999989 0
0.0233333334 0.00499999989 0
0.0199999996 0.00499999989 0
0.0166666675 0.00499999989 0
0.0133333337 0.00499999989 0
0.00999999978 0.00499999989 0
0.00666666683 0.00499999989 0
0.00333333341 0.00499999989 0
0 0.00499999989 0
0.100000001 0.00166666671 0
0.0966666639 0.00166666671 0
0.0933333337 0.00166666671 0
0.0900000036 0.00166666671 0
0.086666666 0.00166666671 0
0.0833333358 0.00166666671 0
0.0799999982 0.00166666671 0
0.0766666681 0.00166666671 0
0.0733333305 0.00166666671 0
0.0700000003 0.00166666671 0
0.0666666701 0.00166666671 0
0.0633333325 0.00166666671 0
0.0599999987 0.00166666671 0
0.0566666685 0.00166666671 0
0.0533333346 0.00166666671 0
0.0500000007 0.00166666671 0
0.0466666669 0.00166666671 0
0.043333333 0.00166666671 0
0.0399999991 0.00166666671 0
0.0366666652 0.00166666671 0
0.0333333351 0.00166666671 0
0.0299999993 0.00166666671 0
0.0266666673 0.00166666671 0
0.0233333334 0.00166666671 0
0.0199999996 0.00166666671 0
0.0166666675 0.00166666671 0
0.0133333337 0.00166666671 0
0.00999999978 0.00166666671 0
0.00666666683 0.00166666671 0
0.00333333341 0.00166666671 0
0 0.00166666671 0
0.100000001 -0.00166666671 0
0.0966666639 -0.00166666671 0
0.0933333337 -0.00166666671 0
0.0900000036 -0.00166666671 0
0.086666666 -0.00166666671 0
0.0833333358 -0.00166666671 0
0.0799999982 -0.00166666671 0
0.0766666681 -0.00166666671 0
0.0733333305 -0.00166666671 0
0.0700000003 -0.00166666671 0
0.0666666701 -0.00166666671 0
0.0633333325 -0.00166666671 0
0.0599999987 -0.00166666671 0
0.0566666685 -0.00166666671 0
0.0533333346 -0.00166666671 0
0.0500000007 -0.00166666671 0
0.0466666669 -0.00166666671 0
0.043333333 -0.00166666671 0
0.0399999991 -0.00166666671 0
0.0366666652 -0.00166666671 0
0.0333333351 -0.00166666671 0
0.0299999993 -0.00166666671 0
0.0266666673 -0.00166666671 0
0.0233333334 -0.00166666671 0
0.0199999996 -0.00166666671 0
0.0166666675 -0.00166666671 0
0.0133333337 -0.00166666671 0
0.00999999978 -0.00166666671 0
0.00666666683 -0.00166666671 0
0.00333333341 -0.00166666671 0
0 -0.00166666671 0
0.100000001 -0.00499999989 0
0.0966666639 -0.00499999989 0
0.0933333337 -0.00499999989 0
0.0900000036 -0.00499999989 0
0.086666666 -0.00499999989 0
0.0833333358 -0.00499999989 0
0.0799999982 -0.00499999989 0
0.0766666681 -0.00499999989 0
0.0733333305 -0.00499999989 0
0.0700000003 -0.00499999989 0
0.0666666701 -0.00499999989 0
0.0633333325 -0.00499999989 0
0.0599999987 -0.00499999989 0
0.0566666685 -0.00499999989 0
0.0533333346 -0.00499999989 0
0.0500000007 -0.00499999989 0
0.0466666669 -0.00499999989 0
0.043333333 -0.00499999989 0
0.0399999991 -0.00499999989 0
0.0366666652 -0.00499999989 0
0.0333333351 -0.00499999989 0
0.0299999993 -0.00499999989 0
0.0266666673 -0.00499999989 0
0.0233333334 -0.00499999989 0
0.0199999996 -0.00499999989 0
0.0166666675 -0.00499999989 0
0.0133333337 -0.00499999989 0
0.00999999978 -0.00499999989 0
0.00666666683 -0.00499999989 0
0.00333333341 -0.00499999989 0
0 -0.00499999989 0
0.100000001 -0.00833333377 0
0.0966666639 -0.00833333377 0
0.0933333337 -0.00833333377 0
0.0900000036 -0.00833333377 0
0.086666666 -0.00833333377 0
0.0833333358 -0.00833333377 0
0.0799999982 -0.00833333377 0
0.0766666681 -0.00833333377 0
0.0733333305 -0.00833333377 0
0.0700000003 -0.00833333377 0
0.0666666701 -0.00833333377 0
0.0633333325 -0.00833333377 0
0.0599999987 -0.00833333377 0
0.0566666685 -0.00833333377 0
0.0533333346 -0.00833333377 0
0.0500000007 -0.00833333377 0
0.0466666669 -0.00833333377 0
0.043333333 -0.00833333377 0
0.0399999991 -0.00833333377 0
0.0366666652 -0.00833333377 0
0.0333333351 -0.00833333377 0
0.0299999993 -0.00833333377 0
0.0266666673 -0.00833333377 0
0.0233333334 -0.00833333377 0
0.0199999996 -0.00833333377 0
0.0166666675 -0.00833333377 0
0.0133333337 -0.00833333377 0
0.00999999978 -0.00833333377 0
0.00666666683 -0.00833333377 0
0.00333333341 -0.00833333377 0
0 -0.00833333377 0
0.100000001 -0.0116666667 0
0.0966666639 -0.0116666667 0
0.0933333337 -0.0116666667 0
0.0900000036 -0.0116666667 0
0.086666666 -0.0116666667 0
0.0833333358 -0.0116666667 0
0.0799999982 -0.0116666667 0
0.0766666681 -0.0116666667 0
0.0733333305 -0.0116666667 0
0.0700000003 -0.0116666667 0
0.0666666701 -0.0116666667 0
0.0633333325 -0.0116666667 0
0.0599999987 -0.0116666667 0
0.0566666685 -0.0116666667 0
0.0533333346 -0.0116666667 0
0.0500000007 -0.0116666667 0
0.0466666669 -0.0116666667 0
0.043333333 -0.0116666667 0
0.0399999991 -0.0116666667 0
0.0366666652 -0.0116666667 0
0.0333333351 -0.0116666667 0
0.0299999993 -0.0116666667 0
0.0266666673 -0.0116666667 0
0.0233333334 -0.0116666667 0
0.0199999996 -0.0116666667 0
0.0166666675 -0.0116666667 0
0.0133333337 -0.0116666667 0
0.00999999978 -0.0116666667 0
0.00666666683 -0.0116666667 0
0.00333333341 -0.0116666667 0
0 -0.0116666667 0
0.100000001 -0.0149999997 0
0.0966666639 -0.0149999997 0
0.0933333337 -0.0149999997 0
0.0900000036 -0.0149999997 0
0.086666666 -0.0149999997 0
0.0833333358 -0.0149999997 0
0.0799999982 -0.0149999997 0
0.0766666681 -0.0149999997 0
0.0733333305 -0.0149999997 0
0.0700000003 -0.0149999997 0
0.0666666701 -0.0149999997 0
0.0633333325 -0.0149999997 0
0.0599999987 -0.0149999997 0
0.0566666685 -0.0149999997 0
0.0533333346 -0.0149999997 0
0.0500000007 -0.0149999997 0
0.0466666669 -0.0149999997 0
0.043333333 -0.0149999997 0
0.0399999991 -0.0149999997 0
0.0366666652 -0.0149999997 0
0.0333333351 -0.0149999997 0
0.0299999993 -0.0149999997 0
0.0266666673 -0.0149999997 0
0.0233333334 -0.0149999997 0
0.0199999996 -0.0149999997 0
0.0166666675 -0.0149999997 0
0.0133333337 -0.0149999997 0
0.00999999978 -0.0149999997 0
0.00666666683 -0.0149999997 0
0.00333333341 -0.0149999997 0
0 -0.0149999997 0
0.100000001 -0.0183333326 0
0.0966666639 -0.0183333326 0
0.0933333337 -0.0183333326 0
0.0900000036 -0.0183333326 0
0.086666666 -0.0183333326 0
0.0833333358 -0.0183333326 0
0.0799999982 -0.0183333326 0
0.0766666681 -0.0183333326 0
0.0733333305 -0.0183333326 0
0.0700000003 -0.0183333326 0
0.0666666701 -0.0183333326 0
0.0633333325 -0.0183333326 0
0.0599999987 -0.0183333326 0
0.0566666685 -0.0183333326 0
0.0533333346 -0.0183333326 0
0.0500000007 -0.0183333326 0
0.0466666669 -0.0183333326 0
0.043333333 -0.0183333326 0
0.0399999991 -0.0183333326 0
0.0366666652 -0.0183333326 0
0.0333333351 -0.0183333326 0
0.0299999993 -0.0183333326 0
0.0266666673 -0.0183333326 0
0.0233333334 -0.0183333326 0
0.0199999996 -0.0183333326 0
0.0166666675 -0.0183333326 0
0.0133333337 -0.0183333326 0
0.00999999978 -0.0183333326 0
0.00666666683 -0.0183333326 0
0.00333333341 -0.0183333326 0
0 -0.0183333326 0
0.100000001 -0.0216666665 0
0.0966666639 -0.0216666665 0
0.0933333337 -0.0216666665 0
0.0900000036 -0.0216666665 0
0.086666666 -0.0216666665 0
0.0833333358 -0.0216666665 0
0.0799999982 -0.0216666665 0
0.0766666681 -0.0216666665 0
0.0733333305 -0.0216666665 0
0.0700000003 -0.0216666665 0
0.0666666701 -0.0216666665 0
0.0633333325 -0.0216666665 0
0.0599999987 -0.0216666665 0
0.0566666685 -0.0216666665 0
0.0533333346 -0.0216666665 0
0.0500000007 -0.0216666665 0
0.0466666669 -0.0216666665 0
0.043333333 -0.0216666665 0
0.0399999991 -0.0216666665 0
0.0366666652 -0.0216666665 0
0.0333333351 -0.0216666665 0
0.0299999993 -0.0216666665 0
0.0266666673 -0.0216666665 0
0.0233333334 -0.0216666665 0
0.0199999996 -0.0216666665 0
0.0166666675 -0.0216666665 0
0.0133333337 -0.0216666665 0
0.00999999978 -0.0216666665 0
0.00666666683 -0.0216666665 0
0.00333333341 -0.0216666665 0
0 -0.0216666665 0
0.100000001 -0.0250000004 0
0.0966666639 -0.0250000004 0
0.0933333337 -0.0250000004 0
0.0900000036 -0.0250000004 0
0.086666666 -0.0250000004 0
0.0833333358 -0.0250000004 0
0.0799999982 -0.0250000004 0
0.0766666681 -0.0250000004 0
0.0733333305 -0.0250000004 0
0.0700000003 -0.0250000004 0
0.0666666701 -0.0250000004 0
0.0633333325 -0.0250000004 0
0.0599999987 -0.0250000004 0
0.0566666685 -0.0250000004 0
0.0533333346 -0.0250000004 0
0.0500000007 -0.0250000004 0
0.0466666669 -0.0250000004 0
0.043333333 -0.0250000004 0
0.0399999991 -0.0250000004 0
0.0366666652 -0.0250000004 0
0.0333333351 -0.0250000004 0
0.0299999993 -0.0250000004 0
0.0266666673 -0.0250000004 0
0.0233333334 -0.0250000004 0
0.0199999996 -0.0250000004 0
0.0166666675 -0.0250000004 0
0.0133333337 -0.0250000004 0
0.00999999978 -0.0250000004 0
0.00666666683 -0.0250000004 0
0.00333333341 -0.0250000004 0
0 -0.0250000004 0
0.100000001 -0.0283333343 0
0.0966666639 -0.0283333343 0
0.0933333337 -0.0283333343 0
0.0900000036 -0.0283333343 0
0.086666666 -0.0283333343 0
0.0833333358 -0.0283333343 0
0.0799999982 -0.0283333343 0
0.0766666681 -0.0283333343 0
0.0733333305 -0.0283333343 0
0.0700000003 -0.0283333343 0
0.0666666701 -0.0283333343 0
0.0633333325 -0.0283333343 0
0.0599999987 -0.0283333343 0
0.0566666685 -0.0283333343 0
0.0533333346 -0.0283333343 0
0.0500000007 -0.0283333343 0
0.0466666669 -0.0283333343 0
0.043333333 -0.0283333343 0
0.0399999991 -0.0283333343 0
0.0366666652 -0.0283333343 0
0.0333333351 -0.0283333343 0
0.0299999993 -0.0283333343 0
0.0266666673 -0.0283333343 0
0.0233333334 -0.0283333343 0
0.0199999996 -0.0283333343 0
0.0166666675 -0.0283333343 0
0.0133333337 -0.0283333343 0
0.00999999978 -0.0283333343 0
0.00666666683 -0.0283333343 0
0.00333333341 -0.0283333343 0
0 -0.0283333343 0
0.100000001 -0.0316666663 0
[...]
POINT_DATA 961
SCALARS Temp float 1
LOOKUP_TABLE default
197.26697214634555
168.05278672216636
155.60919500817025
151.44474500899014
150.26045430115738
149.95699141117527
149.8845358691532
149.86809000374376
149.86449589291735
149.86373315819827
149.86357503375
149.86354287141967
149.86353643241804
149.86353516069292
149.86353491399373
149.8635348751562
149.86353491399367
149.8635351606925
149.86353643241998
149.86354287143072
149.8635750336286
149.8637331582209
149.86449589411322
149.8680900002459
149.88453589382178
149.9569912621681
150.26045436313544
151.44474282920356
155.60919415593554
168.05281259961478
197.2669622372864
168.05285968883237
137.97531762029618
125.15036384582632
120.85363594930855
119.63067007981074
119.3170899795772
119.2421798101428
119.22516968624265
119.22145097177928
119.22066156437943
119.22049786943022
119.22046456686262
119.22045789831112
119.22045658102704
119.22045632545209
119.22045628521279
119.22045632545196
119.22045658102668
119.22045789831309
119.22046456687389
119.22049786930336
119.22066156439672
119.22145097298171
119.22516968242137
119.24217983454469
119.31708981883453
119.63067011105248
120.85363344957345
125.15036224915112
137.9753275826045
168.052815666427
155.6092513645169
125.15035858929747
112.13947918325118
107.77110351416529
106.52530948538744
106.20537002354189
106.12884198430574
106.11144593983673
106.10763944728471
106.1068307873845
106.10666298908089
106.10662883189308
106.10662198870041
106.10662063629897
106.10662037380432
106.10662033246324
106.10662037380419
106.10662063629871
106.10662198870243
106.10662883190409
106.1066629889479
106.10683078738548
106.10763944842157
106.11144593540429
106.12884200630576
106.20536984375528
106.52530942761494
107.77110054504949
112.13947476594619
125.15036154793643
155.60919587227164
151.4448001017961
120.85363150985789
107.77110577299231
103.37136676073412
102.11431048330495
101.79092317114946
101.71345393101254
101.69582082793967
101.69195804816395
101.69113660569887
101.69096600333651
101.69093124781072
101.69092427978417
101.69092290182677
101.69092263421786
101.69092259205328
101.69092263421776
101.69092290182637
101.69092427978603
101.69093124782117
101.69096600319727
101.69113660567736
101.69195804919495
101.69582082277813
101.71345394978933
101.79092297096481
102.11431033806748
103.3713633398222
107.77110011800575
120.85363220292119
151.4447418918645
150.26051407702099
119.63066928754297
106.5253151958911
102.11431401506623
100.8526449548578
100.5276662704834
100.44971924009475
100.43195663878143
100.42806127597943
100.42723208101623
100.42705971167831
100.4270245668444
100.42701751535921
100.42701611991235
100.42701584873281
100.42701580598496
100.42701584873278
100.42701611991198
100.427017515361
100.42702456685416
100.4270597115333
100.42723208097175
100.42806127689973
100.43195663296953
100.44971925596408
100.52766605539198
100.85264474886532
102.11431040524607
106.52530914842643
119.63066942252387
150.26045519728333
149.95705605751743
119.31708989368546
106.20537584554408
101.79092675596162
100.52766632991677
100.2020645470445
100.12390778700792
100.10608280919807
100.10217055111234
100.10133708970956
100.10116369944134
100.10112832037025
100.1011212169211
100.10111981026124
100.10111953673486
100.10111949359673
100.10111953673479
100.10111981026093
100.10112121692273
100.1011283203794
100.10116369929172
100.10133708964591
100.10217055194362
100.10608280292033
100.1239078009727
100.2020643235604
100.5276660994716
101.79092308678692
106.2053696978751
119.31708989830923
149.95699702748146
149.8846006417468
119.2421797528785
106.12884790154834
101.71345768333377
100.4497194897941
100.12390798301168
100.04567173162435
100.02782042734427
100.0239003724327
100.02306479363835
100.02289086544997
100.02285535667127
100.02284822321619
100.02284680984626
100.02284653487213
100.02284649148808
100.02284653487206
100.02284680984573
100.02284822321774
100.02285535667981
100.02289086529707
100.02306479356152
100.02390037320579
100.02782042080018
100.04567174461118
100.1239077562764
100.44971925170417
101.7134539986238
106.12884173028458
119.24217972911205
149.8845415791409
149.86814906673172
119.22516823190387
106.1114515725042
101.69582451786563
100.43195686359546
100.10608298709576
100.02782041031257
100.00995937024992
100.00603612680906
100.00519960505244
100.00502541968878
100.00498984510445
100.00498269564545
100.00498127854081
100.00498100273154
100.00498095920196
100.0049810027314
100.00498127854037
100.00498269564689
100.00498984511263
100.00502541953385
100.0051996049677
100.0060361275507
100.00995936358117
100.02782042292844
100.10608275934413
100.43195662347522
101.69582082943565
106.11144539603771
119.22516820216701
149.8680899973447
149.86454894644154
119.22144824959392
106.10764488675756
101.69196170821063
100.42806149956711
100.10217073317403
100.023900360615
100.00603613220692
100.00211173208412
100.00127483454767
100.00110053803952
100.00106493299043
100.00105777567677
100.00105635664566
100.00105608038706
100.00105603677697
100.00105608038703
100.00105635664517
100.00105777567815
100.00106493299849
100.00110053788352
100.0012748344591
100.00211173281184
100.00603612549213
100.02390037311477
100.1021705051475
100.42806125895468
101.69195801894595
106.10763870918821
119.22144821864
149.86448987568022
149.86378671856218
119.22065935624384
106.10683625955568
101.6911402597894
100.42723230036675
100.10133726955853
100.02306478021431
100.00519960897383
100.0012748330903
100.00043780132266
100.00026346146687
100.0002278435848
100.00022068273508
100.00021926278578
100.00021898630249
100.00021894265073
100.00021898630246
100.00021926278527
100.00022068273636
100.0002278435927
100.00026346131042
100.00043780123235
100.00127483381293
100.00519960224463
100.02306479268235
100.101337041464
100.42723205964252
101.69113657034531
106.10683008175974
119.22065932504772
149.86372764752517
149.86363879825726
119.2204968908046
106.10666861099719
101.69096966843752
100.4270599309485
100.10116387920358
100.02289085206891
100.00502542368399
100.00110053665945
100.00026346154394
100.00008910639838
100.00005348360153
100.00004632129486
100.0000449009424
100.00004462435487
100.00004458068304
100.00004462435469
100.0000449009418
100.00004632129621
100.00005348360936
100.00008910624173
100.0002634614531
100.00110053738037
100.00502541695057
100.02289086452905
100.10116365109323
100.42705969020001
101.69096597895597
106.10666243315559
119.22049685956416
149.86357972715746
149.86360716299782
119.2204636417112
106.10663445869764
101.69093491234295
100.4270247875201
100.10112850071457
100.02285534354941
100.00498984926438
100.00106493175278
100.0002278437995
100.0000534837382
100.00001785922584
100.00001069636978
100.00000927585438
100.00000899922215
100.00000895554135
100.00000899922206
100.00000927585378
100.00001069637118
100.00001785923362
100.00005348358147
100.00022784370842
100.00106493247331
100.00498984253
100.02285535600755
100.10112827260063
100.42702454676653
101.69093122285383
106.10662828084708
119.2204636104618
149.8635480918872
149.86359050047696
119.22045576067691
106.10662744962536
101.69092794588705
100.42701774001624
100.10112139854934
100.02284821038897
100.00498269986514
100.00105777444917
100.00022068294999
100.00004632142992
100.0000106963679
100.00000353332176
100.00000211274566
100.00000183609578
100.00000179241124
100.00000183609565
100.00000211274512
100.0000035333231
100.00001069637567
100.0000463212731
100.00022068285887
100.00105777516951
100.00498269313053
100.02284822284672
100.10112117043464
100.42701749926155
101.69092425639643
106.10662127177315
119.22045572942264
149.86353142937327
149.86358800118936
119.22045357576837
106.1066261808257
101.69092660321284
100.42701635467972
100.10111999408315
100.02284679746317
100.00498128284478
100.0010563554329
100.00021926300255
100.00004490107676
100.00000927585134
100.00000211274461
100.0000006921478
100.00000041549134
100.00000037180554
100.00000041549129
100.00000069214724
100.00000211274602
100.00000927585921
100.00004490092005
100.0002192629114
100.00105635615319
100.00498127611013
100.02284680992082
100.1011197659683
100.42701611392484
101.69092291372182
106.10662000297297
119.22045354451362
149.86352893008763
149.86359039093568
119.22045589725016
106.10662633918568
101.69092641739908
100.42701609788926
100.10111972319409
100.02284652296919
100.00498100712296
100.00105607919038
100.0002189865225
100.00004462449036
100.0000089992199
100.00000183609535
100.00000041549195
100.00000013883344
100.00000009514699
100.00000013883334
100.00000041549147
100.00000183609667
100.00000899922763
100.00004462433358
100.00021898643142
100.00105607991075
100.00498100038837
100.02284653542681
100.10111949507919
100.42701585713428
101.69092272790779
106.10662016133263
119.22045586599461
149.86353131982884
149.8636110558455
119.22045852091132
106.10662678030609
101.69092644651698
100.42701606670028
100.10111968201957
100.02284647992579
100.00498096365357
100.0010560355909
100.00021894287262
100.00004458081898
100.00000895553926
100.00000179241091
100.00000037180621
100.0000000951471
100.00000005146066
100.00000009514707
100.00000037180561
100.00000179241222
100.00000895554696
100.00004458066219
100.00021894278147
100.00105603631128
100.00498095691891
100.02284649238347
100.10111945390469
100.42701582594533
101.6909227570255
106.10662060245265
119.22045848966161
149.86355198472035
149.8636111043411
119.22045856968737
106.10662682817582
101.69092649212034
100.42701611096382
100.10111972544956
100.02284652337116
100.00498100719392
100.00105607920297
100.00021898652479
100.00004462449081
100.00000899921999
100.00000183609541
100.00000041549204
100.00000013883344
100.00000009514704
100.00000013883334
100.00000041549148
100.00000183609669
100.00000899922779
100.00004462433402
100.00021898643362
100.00105607992329
100.00498100045935
100.02284653582882
100.10111949733479
100.42701587020895
101.69092280262889
106.10662065032245
119.22045853843785
149.86355203321617
149.86359068962608
119.22045620392538
106.10662663325354
101.69092670203807
100.4270163729003
100.10111999756762
100.02284679810198
100.0049812829621
100.00105635545434
100.00021926300658
100.0000449010777
100.00000927585171
100.00000211274488
100.00000069214802
100.00000041549157
100.00000037180561
100.00000041549144
100.00000069214741
100.00000211274622
100.00000927585941
100.00004490092087
100.00021926291542
100.00105635617466
100.00498127622745
100.02284681055964
100.10111976945285
100.42701613214557
101.69092301254685
106.10662045540069
119.22045617267023
149.8635316185196
149.863589537211
119.2204550753494
106.10662767007491
101.690928006827
100.4270177558839
100.1011214018252
100.02284821104821
100.00498269999346
100.0010577744746
100.00022068295566
100.00004632143181
100.0000106963691
100.0000035333229
100.00000211274669
100.00000183609677
100.00000179241225
100.00000183609667
100.00000211274619
100.00000353332419
100.00001069637682
100.0000463212751
100.0002206828645
100.00105777519498
100.0049826932589
100.02284822350607
100.10112117371082
100.42701751512959
101.6909243173367
106.10662149222308
119.22045504409556
149.86353046611026
149.86359751686402
119.22046349709312
106.1066344172949
101.69093494342178
100.42702479641011
100.10112850302609
100.02285534407281
100.00498984938184
100.0010649317818
100.00022784381007
100.00005348374509
100.00001785923196
100.00001069637572
100.00000927586026
100.00000899922796
100.00000895554724
100.00000899922792
100.00000927585972
100.00001069637709
100.00001785923982
100.00005348358832
100.00022784371902
100.00106493250236
100.0049898426477
100.02285535653151
100.10112827491317
100.42702455565816
101.69093125393493
106.10662823944742
119.22046346584371
149.86353844576405
149.86364795080047
119.22049701319055
106.10666870625151
101.69096967633489
100.42705993508405
100.1011638805787
100.02289085251425
100.00502542385247
100.0011005367584
100.00026346162697
100.00008910647792
100.00005348368042
100.00004632137353
100.00004490102097
100.0000446244334
100.00004458076155
100.00004462443329
100.00004490102044
100.00004632137487
100.0000534836882
100.00008910632128
100.00026346153611
100.00110053747966
100.00502541712011
100.0228908649764
100.10116365247269
100.4270596943432
101.69096598686484
106.10666252842515
119.22049698197097
149.863588879712
149.8637881991946
119.2206604273649
106.10683630193499
101.69114026460795
100.42723230244836
100.10133727047996
100.02306478044177
100.00519960896725
100.00127483302047
100.00043780123798
100.00026346137896
100.00022784349619
100.00022068264633
100.00021926269709
100.00021898621381
100.00021894256193
100.00021898621361
100.00021926269655
100.00022068264765
100.00022784350399
100.00026346122243
100.00043780114768
100.00127483374358
100.00519960224054
100.02306479291765
100.10133704240367
100.42723206175876
101.69113657521896
106.10683012421492
119.22066039625922
149.86372912824837
149.86454835863378
119.22144768378081
106.10764482625514
101.69196171869935
100.42806150614095
100.1021707364355
100.02390036270721
100.00603613399342
100.00211173380086
100.0012748362495
100.00110053973822
100.00106493468867
100.00105777737475
100.00105635834359
100.00105608208506
100.0010560384749
100.00105608208489
100.00105635834306
100.00105777737608
100.00106493469647
100.00110053958203
100.00127483616033
100.00211173452853
100.00603612728402
100.02390037523132
100.10217050847783
100.42806126567537
101.69195802968937
106.10763864905391
119.2214476532791
149.8644892883445
149.86814318509894
119.22516693554886
106.11145163115447
101.69582455157651
100.43195687324565
100.1060829876937
100.02782040887406
100.00995936840188
100.00603612488266
100.00519960311046
100.00502541774362
100.00498984315863
100.00498269369945
100.00498127659485
100.00498100078559
100.00498095725597
100.00498100078546
100.00498127659436
100.00498269370084
100.00498984316651
100.00502541758785
100.00519960302307
100.00603612561866
100.00995936173302
100.02782042154396
100.10608276016224
100.43195663369997
101.69582086426006
106.11144545642269
119.22516690801706
149.86808411805586
149.8845942002603
119.24218179632791
106.12884826801249
101.71345781850764
100.44971955264124
100.12390803250736
100.04567177880229
100.02782047415558
100.02390041917816
100.02306484037128
100.02289091218044
100.02285540340105
100.02284826994584
100.02284685657584
100.02284658160173
100.02284653821773
100.02284658160166
100.02284685657538
100.02284826994726
100.02285540340904
100.02289091202529
100.02306484028644
100.02390041992653
100.0278204675573
100.04567179178903
100.12390780628785
100.44971931646496
101.7134541383316
106.12884210451642
119.24218178309025
149.88453514891899
149.95708533262743
119.31709235761952
106.20537653204525
101.79092689837046
100.5276663986514
100.20206460577243
100.12390784465052
100.10608286663863
100.10217060851045
100.10133714709677
100.10116375682593
100.10112837775411
100.10112127430479
100.10111986764494
100.10111959411847
100.1011195509803
100.10111959411844
100.10111986764454
100.10112127430624
100.10112837776214
100.10116375667182
100.10133714701487
100.10217060927278
100.10608286014079
100.12390785809951
100.20206438228843
100.5276661730411
101.79092324499254
106.20537041738461
119.31709240996489
149.95702635591252
150.26051134061314
119.63067125605919
106.52531500491936
102.11431366134522
100.85264460103419
100.52766592255995
100.44971889272975
100.43195629141093
100.4280609285706
100.42723173359336
100.42705936425148
100.42702421941661
100.42701716793107
100.42701577248415
100.42701550130474
100.4270154585568
100.42701550130467
100.42701577248371
100.42701716793255
100.42702421942462
100.42705936409867
100.42723173351426
100.42806092934401
100.43195628502438
100.44971890668542
100.52766570263361
100.85264439504155
102.11431009576421
106.52530907752124
119.63067160243503
150.26045269611765
151.444795430825
120.8536301509072
107.7711064141628
103.37136801188959
102.1143118820057
101.79092458854339
101.71345535097416
101.69582224809842
101.69195946831704
101.69113802584256
101.69096742347723
101.69093266795048
101.69092569992387
101.69092432196636
101.69092405435751
101.69092401219291
101.69092405435732
101.69092432196587
101.69092569992515
101.69093266795848
101.69096742332631
101.6911380257658
101.69195946909319
101.69582224182335
101.7134553652168
101.79092437256153
102.11431169252866
103.37136459097776
107.77110115125109
120.85363163048352
151.44473829362187
155.6092356537903
125.15034900570397
112.13947531285336
107.77110089284957
106.52530698808444
106.20536754283438
106.12883950428845
106.11144345963694
106.10763696698602
106.10682830705716
106.10666050874629
106.10662635155701
106.10661950836398
106.1066181559624
106.10661789346771
106.10661785212662
106.10661789346759
106.10661815596191
106.10661950836524
106.10662635156484
106.10666050859811
106.10682830698237
106.10763696775474
106.11144345346975
106.1288395185205
106.20536733003875
106.52530681024432
107.77109753165843
112.13947089554736
125.15035531306282
155.60918379372433
168.0528365341605
137.9753304111272
125.15038263958164
120.85365498596013
119.63068921359138
119.31710912206715
119.24219895391788
119.22518883003971
119.22147011555315
119.22068070814282
119.22051701319074
119.2204837106225
119.2204770420709
119.22047572478674
119.2204754692118
119.22047542897246
119.22047546921159
119.22047572478623
119.22047704207228
119.22048371063035
119.22051701304623
119.22068070806984
119.22147011630366
119.2251888240116
119.24219896778729
119.31710891361145
119.63068903343462
120.85365169970866
125.15037769417275
137.9753403734162
168.0528205150118
197.26696484904414
168.05279447291318
155.6091957096588
151.4447458247978
150.26045507930996
149.95699218651848
149.88453664254214
149.86809077661212
149.86449666564263
149.8637339308895
149.86357580643366
149.86354364410164
149.86353720509968
149.86353593337435
149.86353568667528
149.86353564783772
149.86353568667522
149.86353593337387
149.86353720510093
149.86354364410917
149.86357580629405
149.863733930819
149.86449666636764
149.8680907707769
149.88453665594852
149.9569919841661
150.26045490604292
151.4447425722857
155.60919122523134
168.05279234710753
197.26695494001265
