# vtk DataFile Version 2.0
Unstructured Grid Example
ASCII
DATASET UNSTRUCTURED_GRID

POINTS 961.0 float
0.100000001 0.00499999989 0
0.0966666639 0.00499999989 0
0.0933333337 0.00499999989 0
0.0900000036 0.00499999989 0
0.086666666 0.00499999989 0
0.0833333358 0.00499999989 0
0.0799999982 0.00499999989 0
0.0766666681 0.00499999989 0
0.0733333305 0.00499999989 0
0.0700000003 0.00499999989 0
0.0666666701 0.00499999989 0
0.0633333325 0.00499999989 0
0.0599999987 0.00499999989 0
0.0566666685 0.00499999989 0
0.0533333346 0.00499999989 0
0.0500000007 0.00499999989 0
0.0466666669 0.00499999989 0
0.043333333 0.00499999989 0
0.0399999991 0.00499999989 0
0.0366666652 0.00499999989 0
0.0333333351 0.00499999989 0
0.0299999993 0.00499999989 0
0.0266666673 0.00499999989 0
0.0233333334 0.00499999989 0
0.0199999996 0.00499999989 0
0.0166666675 0.00499999989 0
0.0133333337 0.00499999989 0
0.00999999978 0.00499999989 0
0.00666666683 0.00499999989 0
0.00333333341 0.00499999989 0
0.0 0.00499999989 0
0.100000001 0.00166666671 0
0.0966666639 0.00166666671 0
0.0933333337 0.00166666671 0
0.0900000036 0.00166666671 0
0.086666666 0.00166666671 0
0.0833333358 0.00166666671 0
0.0799999982 0.00166666671 0
0.0766666681 0.00166666671 0
0.0733333305 0.00166666671 0
0.0700000003 0.00166666671 0
0.0666666701 0.00166666671 0
0.0633333325 0.00166666671 0
0.0599999987 0.00166666671 0
0.0566666685 0.00166666671 0
0.0533333346 0.00166666671 0
0.0500000007 0.00166666671 0
0.0466666669 0.00166666671 0
0.043333333 0.00166666671 0
0.0399999991 0.00166666671 0
0.0366666652 0.00166666671 0
0.0333333351 0.00166666671 0
0.0299999993 0.00166666671 0
0.0266666673 0.00166666671 0
0.0233333334 0.00166666671 0
0.0199999996 0.00166666671 0
0.0166666675 0.00166666671 0
0.0133333337 0.00166666671 0
0.00999999978 0.00166666671 0
0.00666666683 0.00166666671 0
0.00333333341 0.00166666671 0
0.0 0.00166666671 0
0.100000001 -0.00166666671 0
0.0966666639 -0.00166666671 0
0.0933333337 -0.00166666671 0
0.0900000036 -0.00166666671 0
0.086666666 -0.00166666671 0
0.0833333358 -0.00166666671 0
0.0799999982 -0.00166666671 0
0.0766666681 -0.00166666671 0
0.0733333305 -0.00166666671 0
0.0700000003 -0.00166666671 0
0.0666666701 -0.00166666671 0
0.0633333325 -0.00166666671 0
0.0599999987 -0.00166666671 0
0.0566666685 -0.00166666671 0
0.0533333346 -0.00166666671 0
0.0500000007 -0.00166666671 0
0.0466666669 -0.00166666671 0
0.043333333 -0.00166666671 0
0.0399999991 -0.00166666671 0
0.0366666652 -0.00166666671 0
0.0333333351 -0.00166666671 0
0.0299999993 -0.00166666671 0
0.0266666673 -0.00166666671 0
0.0233333334 -0.00166666671 0
0.0199999996 -0.00166666671 0
0.0166666675 -0.00166666671 0
0.0133333337 -0.00166666671 0
0.00999999978 -0.00166666671 0
0.00666666683 -0.00166666671 0
0.00333333341 -0.00166666671 0
0.0 -0.00166666671 0
0.100000001 -0.00499999989 0
0.0966666639 -0.00499999989 0
0.0933333337 -0.00499999989 0
0.0900000036 -0.00499999989 0
0.086666666 -0.00499999989 0
0.0833333358 -0.00499999989 0
0.0799999982 -0.00499999989 0
0.0766666681 -0.00499999989 0
0.0733333305 -0.00499999989 0
0.0700000003 -0.00499999989 0
0.0666666701 -0.00499999989 0
0.0633333325 -0.00499999989 0
0.0599999987 -0.00499999989 0
0.0566666685 -0.00499999989 0
0.0533333346 -0.00499999989 0
0.0500000007 -0.00499999989 0
0.0466666669 -0.00499999989 0
0.043333333 -0.00499999989 0
0.0399999991 -0.00499999989 0
0.0366666652 -0.00499999989 0
0.0333333351 -0.00499999989 0
0.0299999993 -0.00499999989 0
0.0266666673 -0.00499999989 0
0.0233333334 -0.00499999989 0
0.0199999996 -0.00499999989 0
0.0166666675 -0.00499999989 0
0.0133333337 -0.00499999989 0
0.00999999978 -0.00499999989 0
0.00666666683 -0.00499999989 0
0.00333333341 -0.00499999989 0
0.0 -0.00499999989 0
0.100000001 -0.00833333377 0
0.0966666639 -0.00833333377 0
0.0933333337 -0.00833333377 0
0.0900000036 -0.00833333377 0
0.086666666 -0.00833333377 0
0.0833333358 -0.00833333377 0
0.0799999982 -0.00833333377 0
0.0766666681 -0.00833333377 0
0.0733333305 -0.00833333377 0
0.0700000003 -0.00833333377 0
0.0666666701 -0.00833333377 0
0.0633333325 -0.00833333377 0
0.0599999987 -0.00833333377 0
0.0566666685 -0.00833333377 0
0.0533333346 -0.00833333377 0
0.0500000007 -0.00833333377 0
0.0466666669 -0.00833333377 0
0.043333333 -0.00833333377 0
0.0399999991 -0.00833333377 0
0.0366666652 -0.00833333377 0
0.0333333351 -0.00833333377 0
0.0299999993 -0.00833333377 0
0.0266666673 -0.00833333377 0
0.0233333334 -0.00833333377 0
0.0199999996 -0.00833333377 0
0.0166666675 -0.00833333377 0
0.0133333337 -0.00833333377 0
0.00999999978 -0.00833333377 0
0.00666666683 -0.00833333377 0
0.00333333341 -0.00833333377 0
0.0 -0.00833333377 0
0.100000001 -0.0116666667 0
0.0966666639 -0.0116666667 0
0.0933333337 -0.0116666667 0
0.0900000036 -0.0116666667 0
0.086666666 -0.0116666667 0
0.0833333358 -0.0116666667 0
0.0799999982 -0.0116666667 0
0.0766666681 -0.0116666667 0
0.0733333305 -0.0116666667 0
0.0700000003 -0.0116666667 0
0.0666666701 -0.0116666667 0
0.0633333325 -0.0116666667 0
0.0599999987 -0.0116666667 0
0.0566666685 -0.0116666667 0
0.0533333346 -0.0116666667 0
0.0500000007 -0.0116666667 0
0.0466666669 -0.0116666667 0
0.043333333 -0.0116666667 0
0.0399999991 -0.0116666667 0
0.0366666652 -0.0116666667 0
0.0333333351 -0.0116666667 0
0.0299999993 -0.0116666667 0
0.0266666673 -0.0116666667 0
0.0233333334 -0.0116666667 0
0.0199999996 -0.0116666667 0
0.0166666675 -0.0116666667 0
0.0133333337 -0.0116666667 0
0.00999999978 -0.0116666667 0
0.00666666683 -0.0116666667 0
0.00333333341 -0.0116666667 0
0.0 -0.0116666667 0
0.100000001 -0.0149999997 0
0.0966666639 -0.0149999997 0
0.0933333337 -0.0149999997 0
0.0900000036 -0.0149999997 0
0.086666666 -0.0149999997 0
0.0833333358 -0.0149999997 0
0.0799999982 -0.0149999997 0
0.0766666681 -0.0149999997 0
0.0733333305 -0.0149999997 0
0.0700000003 -0.0149999997 0
0.0666666701 -0.0149999997 0
0.0633333325 -0.0149999997 0
0.0599999987 -0.0149999997 0
0.0566666685 -0.0149999997 0
0.0533333346 -0.0149999997 0
0.0500000007 -0.0149999997 0
0.0466666669 -0.0149999997 0
0.043333333 -0.0149999997 0
0.0399999991 -0.0149999997 0
0.0366666652 -0.0149999997 0
0.0333333351 -0.0149999997 0
0.0299999993 -0.0149999997 0
0.0266666673 -0.0149999997 0
0.0233333334 -0.0149999997 0
0.0199999996 -0.0149999997 0
0.0166666675 -0.0149999997 0
0.0133333337 -0.0149999997 0
0.00999999978 -0.0149999997 0
0.00666666683 -0.0149999997 0
0.00333333341 -0.0149999997 0
0.0 -0.0149999997 0
0.100000001 -0.0183333326 0
0.0966666639 -0.0183333326 0
0.0933333337 -0.0183333326 0
0.0900000036 -0.0183333326 0
0.086666666 -0.0183333326 0
0.0833333358 -0.0183333326 0
0.0799999982 -0.0183333326 0
0.0766666681 -0.0183333326 0
0.0733333305 -0.0183333326 0
0.0700000003 -0.0183333326 0
0.0666666701 -0.0183333326 0
0.0633333325 -0.0183333326 0
0.0599999987 -0.0183333326 0
0.0566666685 -0.0183333326 0
0.0533333346 -0.0183333326 0
0.0500000007 -0.0183333326 0
0.0466666669 -0.0183333326 0
0.043333333 -0.0183333326 0
0.0399999991 -0.0183333326 0
0.0366666652 -0.0183333326 0
0.0333333351 -0.0183333326 0
0.0299999993 -0.0183333326 0
0.0266666673 -0.0183333326 0
0.0233333334 -0.0183333326 0
0.0199999996 -0.0183333326 0
0.0166666675 -0.0183333326 0
0.0133333337 -0.0183333326 0
0.00999999978 -0.0183333326 0
0.00666666683 -0.0183333326 0
0.00333333341 -0.0183333326 0
0.0 -0.0183333326 0
0.100000001 -0.0216666665 0
0.0966666639 -0.0216666665 0
0.0933333337 -0.0216666665 0
0.0900000036 -0.0216666665 0
0.086666666 -0.0216666665 0
0.0833333358 -0.0216666665 0
0.0799999982 -0.0216666665 0
0.0766666681 -0.0216666665 0
0.0733333305 -0.0216666665 0
0.0700000003 -0.0216666665 0
0.0666666701 -0.0216666665 0
0.0633333325 -0.0216666665 0
0.0599999987 -0.0216666665 0
0.0566666685 -0.0216666665 0
0.0533333346 -0.0216666665 0
0.0500000007 -0.0216666665 0
0.0466666669 -0.0216666665 0
0.043333333 -0.0216666665 0
0.0399999991 -0.0216666665 0
0.0366666652 -0.0216666665 0
0.0333333351 -0.0216666665 0
0.0299999993 -0.0216666665 0
0.0266666673 -0.0216666665 0
0.0233333334 -0.0216666665 0
0.0199999996 -0.0216666665 0
0.0166666675 -0.0216666665 0
0.0133333337 -0.0216666665 0
0.00999999978 -0.0216666665 0
0.00666666683 -0.0216666665 0
0.00333333341 -0.0216666665 0
0.0 -0.0216666665 0
0.100000001 -0.0250000004 0
0.0966666639 -0.0250000004 0
0.0933333337 -0.0250000004 0
0.0900000036 -0.0250000004 0
0.086666666 -0.0250000004 0
0.0833333358 -0.0250000004 0
0.0799999982 -0.0250000004 0
0.0766666681 -0.0250000004 0
0.0733333305 -0.0250000004 0
0.0700000003 -0.0250000004 0
0.0666666701 -0.0250000004 0
0.0633333325 -0.0250000004 0
0.0599999987 -0.0250000004 0
0.0566666685 -0.0250000004 0
0.0533333346 -0.0250000004 0
0.0500000007 -0.0250000004 0
0.0466666669 -0.0250000004 0
0.043333333 -0.0250000004 0
0.0399999991 -0.0250000004 0
0.0366666652 -0.0250000004 0
0.0333333351 -0.0250000004 0
0.0299999993 -0.0250000004 0
0.0266666673 -0.0250000004 0
0.0233333334 -0.0250000004 0
0.0199999996 -0.0250000004 0
0.0166666675 -0.0250000004 0
0.0133333337 -0.0250000004 0
0.00999999978 -0.0250000004 0
0.00666666683 -0.0250000004 0
0.00333333341 -0.0250000004 0
0.0 -0.0250000004 0
0.100000001 -0.0283333343 0
0.0966666639 -0.0283333343 0
0.0933333337 -0.0283333343 0
0.0900000036 -0.0283333343 0
0.086666666 -0.0283333343 0
0.0833333358 -0.0283333343 0
0.0799999982 -0.0283333343 0
0.0766666681 -0.0283333343 0
0.0733333305 -0.0283333343 0
0.0700000003 -0.0283333343 0
0.0666666701 -0.0283333343 0
0.0633333325 -0.0283333343 0
0.0599999987 -0.0283333343 0
0.0566666685 -0.0283333343 0
0.0533333346 -0.0283333343 0
0.0500000007 -0.0283333343 0
0.0466666669 -0.0283333343 0
0.043333333 -0.0283333343 0
0.0399999991 -0.0283333343 0
0.0366666652 -0.0283333343 0
0.0333333351 -0.0283333343 0
0.0299999993 -0.0283333343 0
0.0266666673 -0.0283333343 0
0.0233333334 -0.0283333343 0
0.0199999996 -0.0283333343 0
0.0166666675 -0.0283333343 0
0.0133333337 -0.0283333343 0
0.00999999978 -0.0283333343 0
0.00666666683 -0.0283333343 0
0.00333333341 -0.0283333343 0
0.0 -0.0283333343 0
[...]
POINT_DATA 961.0
SCALARS Temp float 1
LOOKUP_TABLE default
197.26697214634547
168.0527867221664
155.60919500817022
151.44474500899014
150.26045430115738
149.9569914111753
149.8845358691532
149.8680900037437
149.86449589291732
149.8637331581982
149.86357503374995
149.8635428714197
149.86353643241802
149.86353516069283
149.86353491399376
149.8635348751563
149.8635349139937
149.86353516069255
149.86353643242
149.86354287143064
149.86357503362854
149.86373315822095
149.86449589411325
149.86809000024593
149.88453589382175
149.95699126216812
150.26045436313544
151.44474282920353
155.60919415593546
168.0528125996147
197.26696223728626
168.05285968883234
137.97531762029624
125.15036384582632
120.85363594930853
119.63067007981081
119.3170899795772
119.24217981014286
119.22516968624265
119.22145097177928
119.22066156437941
119.22049786943022
119.22046456686262
119.22045789831115
119.22045658102702
119.22045632545208
119.2204562852128
119.220456325452
119.22045658102672
119.22045789831314
119.22046456687384
119.2204978693034
119.22066156439675
119.22145097298173
119.22516968242128
119.24217983454477
119.31708981883455
119.63067011105255
120.85363344957341
125.150362249151
137.97532758260442
168.05281566642688
155.60925136451698
125.15035858929747
112.13947918325123
107.77110351416536
106.52530948538745
106.20537002354195
106.12884198430565
106.1114459398367
106.1076394472847
106.10683078738451
106.10666298908093
106.10662883189312
106.1066219887004
106.10662063629901
106.10662037380433
106.10662033246331
106.1066203738042
106.10662063629874
106.10662198870239
106.10662883190408
106.10666298894789
106.10683078738549
106.10763944842154
106.11144593540429
106.12884200630576
106.20536984375535
106.52530942761497
107.77110054504948
112.1394747659461
125.15036154793631
155.6091958722716
151.44480010179606
120.8536315098579
107.77110577299236
103.37136676073413
102.11431048330498
101.79092317114947
101.71345393101252
101.69582082793963
101.69195804816391
101.69113660569886
101.69096600333647
101.69093124781071
101.6909242797842
101.69092290182674
101.69092263421788
101.69092259205328
101.69092263421776
101.69092290182634
101.69092427978609
101.69093124782114
101.69096600319735
101.69113660567731
101.6919580491949
101.6958208227781
101.71345394978931
101.79092297096483
102.11431033806748
103.37136333982225
107.77110011800568
120.85363220292116
151.44474189186442
150.26051407702096
119.63066928754306
106.52531519589118
102.11431401506626
100.85264495485784
100.52766627048346
100.44971924009474
100.43195663878134
100.42806127597939
100.42723208101617
100.42705971167824
100.42702456684435
100.42701751535914
100.42701611991228
100.42701584873275
100.42701580598496
100.42701584873278
100.42701611991195
100.42701751536106
100.42702456685421
100.42705971153333
100.4272320809717
100.42806127689967
100.43195663296947
100.44971925596407
100.527666055392
100.85264474886532
102.11431040524613
106.52530914842642
119.63066942252387
150.26045519728328
149.9570560575175
119.3170898936855
106.20537584554414
101.79092675596165
100.5276663299168
100.20206454704451
100.12390778700795
100.10608280919807
100.10217055111227
100.10133708970953
100.10116369944133
100.10112832037026
100.10112121692107
100.10111981026124
100.10111953673487
100.10111949359671
100.10111953673477
100.10111981026088
100.10112121692276
100.10112832037943
100.10116369929177
100.10133708964598
100.10217055194359
100.10608280292035
100.12390780097267
100.20206432356038
100.52766609947162
101.79092308678695
106.20536969787508
119.31708989830928
149.9569970274814
149.88460064174677
119.24217975287854
106.12884790154834
101.7134576833337
100.44971948979402
100.12390798301168
100.04567173162432
100.02782042734424
100.02390037243275
100.0230647936383
100.02289086544988
100.02285535667117
100.02284822321616
100.02284680984621
100.02284653487214
100.02284649148807
100.02284653487202
100.02284680984575
100.02284822321766
100.02285535667981
100.02289086529709
100.02306479356155
100.02390037320579
100.02782042080017
100.04567174461116
100.12390775627635
100.44971925170417
101.71345399862385
106.1288417302846
119.24217972911205
149.88454157914092
149.86814906673166
119.22516823190384
106.11145157250414
101.69582451786559
100.43195686359539
100.10608298709566
100.02782041031256
100.00995937024992
100.00603612680902
100.00519960505247
100.00502541968875
100.00498984510439
100.0049826956454
100.00498127854081
100.0049810027315
100.00498095920189
100.00498100273136
100.00498127854024
100.0049826956468
100.00498984511265
100.00502541953382
100.0051996049677
100.0060361275507
100.00995936358116
100.02782042292843
100.10608275934413
100.43195662347526
101.69582082943569
106.11144539603775
119.22516820216701
149.86808999734473
149.8645489464414
119.22144824959386
106.10764488675744
101.69196170821057
100.42806149956702
100.10217073317392
100.02390036061489
100.00603613220687
100.00211173208409
100.00127483454767
100.00110053803948
100.00106493299039
100.00105777567661
100.00105635664556
100.00105608038695
100.00105603677679
100.00105608038682
100.001056356645
100.00105777567802
100.00106493299839
100.00110053788345
100.001274834459
100.00211173281174
100.00603612549203
100.0239003731147
100.10217050514743
100.42806125895461
101.69195801894591
106.10763870918811
119.22144821863994
149.86448987568014
149.86378671856184
119.22065935624347
106.1068362595553
101.69114025978905
100.4272323003664
100.10133726955817
100.02306478021393
100.00519960897341
100.00127483308994
100.00043780132226
100.00026346146646
100.00022784358436
100.00022068273462
100.00021926278536
100.00021898630204
100.00021894265028
100.00021898630197
100.00021926278481
100.0002206827359
100.00022784359223
100.00026346131
100.0004378012319
100.00127483381252
100.00519960224406
100.02306479268194
100.10133704146357
100.42723205964212
101.69113657034487
106.1068300817594
119.2206593250474
149.8637276475247
149.8636387982554
119.22049689080262
106.10666861099514
101.69096966843551
100.42705993094643
100.10116387920147
100.02289085206678
100.00502542368179
100.00110053665729
100.00026346154182
100.00008910639622
100.00005348359932
100.00004632129263
100.00004490094022
100.00004462435263
100.00004458068076
100.00004462435243
100.00004490093959
100.00004632129398
100.000053483607
100.00008910623951
100.00026346145087
100.00110053737815
100.00502541694838
100.0228908645268
100.10116365109101
100.42705969019782
101.69096597895386
106.10666243315352
119.2204968595621
149.86357972715547
149.86360716298782
119.22046364170083
106.10663445868697
101.69093491233197
100.42702478750896
100.10112850070321
100.02285534353788
100.00498984925274
100.00106493174117
100.00022784378775
100.00005348372646
100.00001785921405
100.00001069635803
100.00000927584261
100.00000899921038
100.00000895552954
100.00000899921022
100.000009275842
100.00001069635934
100.00001785922187
100.00005348356972
100.00022784369668
100.00106493246159
100.00498984251824
100.02285535599583
100.1011282725889
100.42702454675492
101.69093122284241
106.10662828083596
119.22046361045084
149.8635480918766
149.86359050042338
119.22045576062133
106.10662744956815
101.6909279458284
100.42701773995643
100.10112139848862
100.0228482103276
100.00498269980326
100.00105777438688
100.00022068288744
100.00004632136726
100.00001069630517
100.00000353325906
100.00000211268294
100.00000183603295
100.00000179234843
100.00000183603285
100.0000021126824
100.00000353326034
100.00001069631281
100.00004632121028
100.00022068279605
100.0010577751067
100.00498269306776
100.02284822278413
100.10112117037228
100.4270174991997
101.69092425633538
106.10662127171325
119.22045572936423
149.86353142931688
149.86358800090434
119.22045357547272
106.10662618052103
101.69092660290062
100.42701635436138
100.10111999376008
100.02284679713655
100.00498128251564
100.00105635510202
100.00021926267058
100.00004490074416
100.00000927551841
100.00000211241147
100.00000069181452
100.00000041515804
100.00000037147208
100.00000041515786
100.00000069181385
100.00000211241262
100.00000927552576
100.00004490058652
100.00021926257782
100.00105635581961
100.00498127577674
100.02284680958807
100.10111976563682
100.42701611359567
101.69092291339656
106.10662000265359
119.22045354420229
149.86352892978698
149.86359038942763
119.2204558956859
106.10662633757335
101.69092641574696
100.42701609620518
100.10111972148533
100.02284652124224
100.00498100538336
100.00105607744229
100.00021898476919
100.00004462273394
100.00000899746168
100.00000183433637
100.00000041373256
100.00000013707378
100.00000009338727
100.00000013707356
100.00000041373168
100.00000183433673
100.00000899746745
100.00004462257304
100.00021898467045
100.0010560781496
100.00498099862773
100.02284653366851
100.10111949332666
100.42701585539292
101.69092272618565
106.10662015964026
119.2204558643448
149.86353131823563
149.86361104791703
119.22045851268733
106.10662677183018
101.69092643783281
100.42701605785001
100.1011196730424
100.02284647085638
100.00498095452043
100.0010560264165
100.00021893367315
100.00004457160516
100.0000089463179
100.00000178318594
100.00000036257951
100.00000008591972
100.00000004223293
100.00000008591917
100.00000036257738
100.00000178318342
100.00000894631701
100.00004457143031
100.00021893354716
100.00105602707457
100.0049809476827
100.02284648315556
100.10111944470094
100.42701581679343
101.69092274796722
106.10662059354465
119.22045848097301
149.863551976328
149.86361106296758
119.22045852677181
106.10662678394816
101.6909264468113
100.4270160647981
100.1011196786358
100.02284647609252
100.00498095960128
100.00105603141165
100.00021893861637
100.00004457651845
100.00000895121545
100.00000178807596
100.0000003674663
100.00000009080532
100.00000004711782
100.00000009080354
100.0000003674606
100.00000178806333
100.00000895118914
100.000044576286
100.00021893837102
100.00105603184365
100.00498095237045
100.02284648776228
100.10111944936408
100.42701582246998
101.69092275533671
106.10662060377624
119.22045849301163
149.86355198932958
149.86359047553628
119.22045598186016
106.1066264044081
101.69092646762515
100.4270161341041
100.10111975549297
100.02284655371493
100.00498103704894
100.00105610860452
100.00021901562572
100.00004465342012
100.0000090280624
100.0000018648984
100.00000044427901
100.0000001676145
100.00000012392563
100.00000016760967
100.0000004442619
100.00000186485154
100.00000902794314
100.00004465296027
100.00021901487769
100.00105610802977
100.00498102798302
100.02284656232916
100.1011195215577
100.42701588523694
101.69092276771077
106.10662021420767
119.22045593712268
149.8635313909014
149.86358844007196
119.22045393732833
106.10662649734415
101.690926805669
100.42701653251798
100.1011201620566
100.02284695994082
100.00498144160616
100.00105651178049
100.00021941792954
100.0000450552575
100.00000942968323
100.00000226643193
100.00000084578163
100.00000056910721
100.00000052541462
100.00000056909401
100.00000084573291
100.00000226627968
100.00000942924922
100.0000450539555
100.00021941517075
100.00105650690084
100.00498142424044
100.02284695407549
100.10111990517252
100.42701625048677
101.69092306197645
106.10662025426191
119.22045383420402
149.8635292966042
149.86359195685668
119.22045772989853
106.10662847406442
101.69092885654942
100.42701859817076
100.10112222382425
100.02284901020961
100.00498348159579
100.00105854480002
100.00022144700586
100.00004708242409
100.00001145605745
100.00000429252127
100.00000287178281
100.00000259508332
100.00000255138212
100.00000259505093
100.00000287165484
100.00000429207921
100.00001145465524
100.00004707825265
100.00022143671353
100.00105852243564
100.0049834281465
100.0228489377758
100.10112185653222
100.42701815084328
101.69092488861673
106.10662195506752
119.22045731850936
149.86353250173778
149.86362014036197
119.22046816481775
106.10663897589022
101.69093922757993
100.42702893509967
100.1011324870331
100.02285920110987
100.00499361893768
100.00106864969251
100.0002315353423
100.00005716365386
100.00002153468569
100.00001437034973
100.00001294939072
100.0000126726347
100.00001262891583
100.00001267256197
100.00001294908455
100.0000143691973
100.00002153066293
100.00005715067685
100.00023149919686
100.00106856092962
100.00499341649957
100.02285883416836
100.10113160369784
100.42702768087172
101.69093412953848
106.10663103372603
119.22046614297507
149.863559048473
149.86365122557618
119.22051833519816
106.10668984187487
101.69099026038057
100.42707960693483
100.10118269970313
100.02290902537811
100.00504318590205
100.00111807644372
100.00028089931645
100.00010650408595
100.00007086794054
100.00006370165677
100.00006228021613
100.00006200334694
100.00006195959506
100.00006200319727
100.00006227954998
100.00006369895878
100.00007085766309
100.00010646771884
100.00028078392812
100.00111775785311
100.00504240884841
100.02290742046365
100.10117949127373
100.42707452000555
101.69097957349166
106.10667467104813
119.22050799105338
149.86358163797425
149.8638861564307
119.22076062166398
106.10693648600015
101.69123611538885
100.42732300778808
100.10142351012473
100.0231478959097
100.00528090450048
100.0013552510444
100.00051786320046
100.00034340451425
100.0003077514593
100.00030058109628
100.00029915873509
100.00029888166596
100.00029883785847
100.00029888138256
100.00029915741369
100.00030057540273
100.0003077280832
100.00034331407183
100.0005175422802
100.00135422830341
100.00527811786301
100.02314143106643
100.10141033947136
100.42730032891558
101.6911984921208
106.10688521647916
119.2207079288819
149.86377297893054
149.86501340727068
119.22191921195906
106.10810166583909
101.69239211125463
100.42846383352266
100.10255072342741
100.02426602196589
100.006394433168
100.00246691744037
100.00162897906061
100.00145437688532
100.00141869018641
100.00141151244965
100.00141008855513
100.00140981117464
100.00140976728188
100.00140981067636
100.00141008615316
100.00141150157225
100.00141864262376
100.00145417825722
100.00162820105193
100.00246412358102
100.00638548336111
100.02424234922894
100.10249764538234
100.42836427584437
101.69222863071172
106.10787451994199
119.22165434972555
149.86468050852778
149.8702167815039
119.22725527322972
106.113442364064
101.69766357904234
100.43364987787224
100.10766903196347
100.02934678085363
100.01145897344554
100.00752679744271
100.00668767689577
100.00651280693732
100.00647706344431
100.00646987428871
100.00646844819387
100.00646817039446
100.00646812637865
100.00646816956082
100.00646844414831
100.0064698553675
100.00647697645121
100.00651241978854
100.00668603413236
100.00752024978121
100.01143514060158
100.02927014183074
100.10747256658512
100.43323520342946
101.69693952275291
106.1123810634318
119.22595399074018
149.86879375016298
149.8933812832892
119.25093603167018
106.13699468271028
101.72077957482331
100.45630182671587
100.13002908891704
100.0515679563539
100.03364200135248
100.02970046274382
100.02885931064758
100.02868402619835
100.02864820258002
100.02864099857862
100.02863956985733
100.02863929162689
100.02863924743475
100.02863929018876
100.028639563382
100.02864096831
100.02864805875616
100.02868335310521
100.02885626388796
100.02968729374346
100.03358849057166
100.05137039547827
100.1293875262433
100.4547358122575
101.71769800089321
106.13216183327943
119.24468196138417
149.88671594132788
149.99166597808454
119.35096964347504
106.23577876313297
101.81679577205024
100.55022003103781
100.22278042250092
100.14402179885502
100.12602566424863
100.12206972653927
100.1212257716236
100.12104997224996
100.12101405782924
100.12100683823192
100.12100540747556
100.12100512931931
100.1210050848194
100.12100512637925
100.12100539663014
100.12100679297998
100.12101384113858
100.1210489226967
100.12122077846777
100.12204672232565
100.12592434877594
100.14360149661971
100.2212019394149
100.54501592296992
101.80494826980866
106.21463650221867
119.32226090128411
149.9602179528018
150.38155377668195
119.7474676968125
106.61972216300794
102.18769011266683
100.91150138356889
100.58191259061577
100.502669065404
100.4845810076623
100.48060821703154
100.4797613875147
100.4795851244221
100.4795491340948
100.47954190289948
100.47954047307415
100.47954020005841
100.47954015603649
100.47954019011699
100.47954045232774
100.47954183425115
100.47954883612589
100.47958364503681
100.4797541134382
100.48057309614545
100.48441652147187
100.50193181794803
100.57878324545972
100.8995431734457
102.14709991963747
106.53713845868297
119.6189384826964
150.24151931191975
151.8086234863281
121.15280710736445
107.96916424188989
103.45911753837761
102.16942680423354
101.83690270846068
101.75717191583904
101.73900200033823
101.73501708763585
101.73416872287316
101.73399228133735
101.73395625647724
101.73394899861468
101.73394759578034
101.73394736388877
101.73394732684187
101.73394731510729
101.73394752795667
101.7339489183552
101.73395584192366
101.73399041085318
101.734159219829
101.73496993009933
101.73877177277181
101.75607972093624
101.83193883857668
102.14786421964837
103.37552225749228
107.66824772342046
120.65241153971039
151.17683562198536
156.14625114364142
125.60014113702564
111.77962527982412
107.20984117492478
105.90638251113698
105.57224088260755
105.49229229009622
105.47410821389732
105.47012612241534
105.46927912725482
105.46910342246653
105.46906716471197
105.46905954210403
105.46905851358062
105.46905867785534
105.46905829340591
105.46905823872719
105.4690584183208
105.46905942423909
105.46906685143453
105.46910073712274
105.46926841190842
105.47006991390487
105.4738284720545
105.4909225243691
105.56571104245063
105.87663148617943
107.07799961170288
111.27055854247584
123.49694525447343
153.91610980173988
170.41624082544348
134.31594455425798
120.57401161918422
115.97526902982418
114.67610490441912
114.34313686772094
114.26359388862517
114.24552793327757
114.2415572467625
114.24072284111615
114.2405551888848
114.24050881771032
114.24050142557577
114.240507168611
114.24050392501553
114.24050347136112
114.24050356663362
114.2405036134023
114.2405046469615
114.24050844192739
114.24055087788803
114.24070804979436
114.24150675185027
114.24522431628023
114.26212868010845
114.33606387256117
114.64283945485195
115.8280643036158
119.91937937071684
132.01536386787626
156.232457656903
