# vtk DataFile Version 2.0
Unstructured Grid Example
ASCII
DATASET UNSTRUCTURED_GRID

POINTS 961 float
0.100000001 0.00499999989 0
0.0966666639 0.00499999989 0
0.0933333337 0.00499999989 0
0.0900000036 0.00499999989 0
0.086666666 0.00499999989 0
0.0833333358 0.00499999989 0
0.0799999982 0.00499999989 0
0.0766666681 0.00499999989 0
0.0733333305 0.00499999989 0
0.0700000003 0.00499999989 0
0.0666666701 0.00499999989 0
0.0633333325 0.00499999989 0
0.0599999987 0.00499999989 0
0.0566666685 0.00499999989 0
0.0533333346 0.00499999989 0
0.0500000007 0.00499999989 0
0.0466666669 0.00499999989 0
0.043333333 0.00499999989 0
0.0399999991 0.00499999989 0
0.0366666652 0.00499999989 0
0.0333333351 0.00499999989 0
0.0299999993 0.00499999989 0
0.0266666673 0.00499999989 0
0.0233333334 0.00499999989 0
0.0199999996 0.00499999989 0
0.0166666675 0.00499999989 0
0.0133333337 0.00499999989 0
0.00999999978 0.00499999989 0
0.00666666683 0.00499999989 0
0.00333333341 0.00499999989 0
0 0.00499999989 0
0.100000001 0.00166666671 0
0.0966666639 0.00166666671 0
0.0933333337 0.00166666671 0
0.0900000036 0.00166666671 0
0.086666666 0.00166666671 0
0.0833333358 0.00166666671 0
0.0799999982 0.00166666671 0
0.0766666681 0.00166666671 0
0.0733333305 0.00166666671 0
0.0700000003 0.00166666671 0
0.0666666701 0.00166666671 0
0.0633333325 0.00166666671 0
0.0599999987 0.00166666671 0
0.0566666685 0.00166666671 0
0.0533333346 0.00166666671 0
0.0500000007 0.00166666671 0
0.0466666669 0.00166666671 0
0.043333333 0.00166666671 0
0.0399999991 0.00166666671 0
0.0366666652 0.00166666671 0
0.0333333351 0.00166666671 0
0.0299999993 0.00166666671 0
0.0266666673 0.00166666671 0
0.0233333334 0.00166666671 0
0.0199999996 0.00166666671 0
0.0166666675 0.00166666671 0
0.0133333337 0.00166666671 0
0.00999999978 0.00166666671 0
0.00666666683 0.00166666671 0
0.00333333341 0.00166666671 0
0 0.00166666671 0
0.100000001 -0.00166666671 0
0.0966666639 -0.00166666671 0
0.0933333337 -0.00166666671 0
0.0900000036 -0.00166666671 0
0.086666666 -0.00166666671 0
0.0833333358 -0.00166666671 0
0.0799999982 -0.00166666671 0
0.0766666681 -0.00166666671 0
0.0733333305 -0.00166666671 0
0.0700000003 -0.00166666671 0
0.0666666701 -0.00166666671 0
0.0633333325 -0.00166666671 0
0.0599999987 -0.00166666671 0
0.0566666685 -0.00166666671 0
0.0533333346 -0.00166666671 0
0.0500000007 -0.00166666671 0
0.0466666669 -0.00166666671 0
0.043333333 -0.00166666671 0
0.0399999991 -0.00166666671 0
0.0366666652 -0.00166666671 0
0.0333333351 -0.00166666671 0
0.0299999993 -0.00166666671 0
0.0266666673 -0.00166666671 0
0.0233333334 -0.00166666671 0
0.0199999996 -0.00166666671 0
0.0166666675 -0.00166666671 0
0.0133333337 -0.00166666671 0
0.00999999978 -0.00166666671 0
0.00666666683 -0.00166666671 0
0.00333333341 -0.00166666671 0
0 -0.00166666671 0
0.100000001 -0.00499999989 0
0.0966666639 -0.00499999989 0
0.0933333337 -0.00499999989 0
0.0900000036 -0.00499999989 0
0.086666666 -0.00499999989 0
0.0833333358 -0.00499999989 0
0.0799999982 -0.00499999989 0
0.0766666681 -0.00499999989 0
0.0733333305 -0.00499999989 0
0.0700000003 -0.00499999989 0
0.0666666701 -0.00499999989 0
0.0633333325 -0.00499999989 0
0.0599999987 -0.00499999989 0
0.0566666685 -0.00499999989 0
0.0533333346 -0.00499999989 0
0.0500000007 -0.00499999989 0
0.0466666669 -0.00499999989 0
0.043333333 -0.00499999989 0
0.0399999991 -0.00499999989 0
0.0366666652 -0.00499999989 0
0.0333333351 -0.00499999989 0
0.0299999993 -0.00499999989 0
0.0266666673 -0.00499999989 0
0.0233333334 -0.00499999989 0
0.0199999996 -0.00499999989 0
0.0166666675 -0.00499999989 0
0.0133333337 -0.00499999989 0
0.00999999978 -0.00499999989 0
0.00666666683 -0.00499999989 0
0.00333333341 -0.00499999989 0
0 -0.00499999989 0
0.100000001 -0.00833333377 0
0.0966666639 -0.00833333377 0
0.0933333337 -0.00833333377 0
0.0900000036 -0.00833333377 0
0.086666666 -0.00833333377 0
0.0833333358 -0.00833333377 0
0.0799999982 -0.00833333377 0
0.0766666681 -0.00833333377 0
0.0733333305 -0.00833333377 0
0.0700000003 -0.00833333377 0
0.0666666701 -0.00833333377 0
0.0633333325 -0.00833333377 0
0.0599999987 -0.00833333377 0
0.0566666685 -0.00833333377 0
0.0533333346 -0.00833333377 0
0.0500000007 -0.00833333377 0
0.0466666669 -0.00833333377 0
0.043333333 -0.00833333377 0
0.0399999991 -0.00833333377 0
0.0366666652 -0.00833333377 0
0.0333333351 -0.00833333377 0
0.0299999993 -0.00833333377 0
0.0266666673 -0.00833333377 0
0.0233333334 -0.00833333377 0
0.0199999996 -0.00833333377 0
0.0166666675 -0.00833333377 0
0.0133333337 -0.00833333377 0
0.00999999978 -0.00833333377 0
0.00666666683 -0.00833333377 0
0.00333333341 -0.00833333377 0
0 -0.00833333377 0
0.100000001 -0.0116666667 0
0.0966666639 -0.0116666667 0
0.0933333337 -0.0116666667 0
0.0900000036 -0.0116666667 0
0.086666666 -0.0116666667 0
0.0833333358 -0.0116666667 0
0.0799999982 -0.0116666667 0
0.0766666681 -0.0116666667 0
0.0733333305 -0.0116666667 0
0.0700000003 -0.0116666667 0
0.0666666701 -0.0116666667 0
0.0633333325 -0.0116666667 0
0.0599999987 -0.0116666667 0
0.0566666685 -0.0116666667 0
0.0533333346 -0.0116666667 0
0.0500000007 -0.0116666667 0
0.0466666669 -0.0116666667 0
0.043333333 -0.0116666667 0
0.0399999991 -0.0116666667 0
0.0366666652 -0.0116666667 0
0.0333333351 -0.0116666667 0
0.0299999993 -0.0116666667 0
0.0266666673 -0.0116666667 0
0.0233333334 -0.0116666667 0
0.0199999996 -0.0116666667 0
0.0166666675 -0.0116666667 0
0.0133333337 -0.0116666667 0
0.00999999978 -0.0116666667 0
0.00666666683 -0.0116666667 0
0.00333333341 -0.0116666667 0
0 -0.0116666667 0
0.100000001 -0.0149999997 0
0.0966666639 -0.0149999997 0
0.0933333337 -0.0149999997 0
0.0900000036 -0.0149999997 0
0.086666666 -0.0149999997 0
0.0833333358 -0.0149999997 0
0.0799999982 -0.0149999997 0
0.0766666681 -0.0149999997 0
0.0733333305 -0.0149999997 0
0.0700000003 -0.0149999997 0
0.0666666701 -0.0149999997 0
0.0633333325 -0.0149999997 0
0.0599999987 -0.0149999997 0
0.0566666685 -0.0149999997 0
0.0533333346 -0.0149999997 0
0.0500000007 -0.0149999997 0
0.0466666669 -0.0149999997 0
0.043333333 -0.0149999997 0
0.0399999991 -0.0149999997 0
0.0366666652 -0.0149999997 0
0.0333333351 -0.0149999997 0
0.0299999993 -0.0149999997 0
0.0266666673 -0.0149999997 0
0.0233333334 -0.0149999997 0
0.0199999996 -0.0149999997 0
0.0166666675 -0.0149999997 0
0.0133333337 -0.0149999997 0
0.00999999978 -0.0149999997 0
0.00666666683 -0.0149999997 0
0.00333333341 -0.0149999997 0
0 -0.0149999997 0
0.100000001 -0.0183333326 0
0.0966666639 -0.0183333326 0
0.0933333337 -0.0183333326 0
0.0900000036 -0.0183333326 0
0.086666666 -0.0183333326 0
0.0833333358 -0.0183333326 0
0.0799999982 -0.0183333326 0
0.0766666681 -0.0183333326 0
0.0733333305 -0.0183333326 0
0.0700000003 -0.0183333326 0
0.0666666701 -0.0183333326 0
0.0633333325 -0.0183333326 0
0.0599999987 -0.0183333326 0
0.0566666685 -0.0183333326 0
0.0533333346 -0.0183333326 0
0.0500000007 -0.0183333326 0
0.0466666669 -0.0183333326 0
0.043333333 -0.0183333326 0
0.0399999991 -0.0183333326 0
0.0366666652 -0.0183333326 0
0.0333333351 -0.0183333326 0
0.0299999993 -0.0183333326 0
0.0266666673 -0.0183333326 0
0.0233333334 -0.0183333326 0
0.0199999996 -0.0183333326 0
0.0166666675 -0.0183333326 0
0.0133333337 -0.0183333326 0
0.00999999978 -0.0183333326 0
0.00666666683 -0.0183333326 0
0.00333333341 -0.0183333326 0
0 -0.0183333326 0
0.100000001 -0.0216666665 0
0.0966666639 -0.0216666665 0
0.0933333337 -0.0216666665 0
0.0900000036 -0.0216666665 0
0.086666666 -0.0216666665 0
0.0833333358 -0.0216666665 0
0.0799999982 -0.0216666665 0
0.0766666681 -0.0216666665 0
0.0733333305 -0.0216666665 0
0.0700000003 -0.0216666665 0
0.0666666701 -0.0216666665 0
0.0633333325 -0.0216666665 0
0.0599999987 -0.0216666665 0
0.0566666685 -0.0216666665 0
0.0533333346 -0.0216666665 0
0.0500000007 -0.0216666665 0
0.0466666669 -0.0216666665 0
0.043333333 -0.0216666665 0
0.0399999991 -0.0216666665 0
0.0366666652 -0.0216666665 0
0.0333333351 -0.0216666665 0
0.0299999993 -0.0216666665 0
0.0266666673 -0.0216666665 0
0.0233333334 -0.0216666665 0
0.0199999996 -0.0216666665 0
0.0166666675 -0.0216666665 0
0.0133333337 -0.0216666665 0
0.00999999978 -0.0216666665 0
0.00666666683 -0.0216666665 0
0.00333333341 -0.0216666665 0
0 -0.0216666665 0
0.100000001 -0.0250000004 0
0.0966666639 -0.0250000004 0
0.0933333337 -0.0250000004 0
0.0900000036 -0.0250000004 0
0.086666666 -0.0250000004 0
0.0833333358 -0.0250000004 0
0.0799999982 -0.0250000004 0
0.0766666681 -0.0250000004 0
0.0733333305 -0.0250000004 0
0.0700000003 -0.0250000004 0
0.0666666701 -0.0250000004 0
0.0633333325 -0.0250000004 0
0.0599999987 -0.0250000004 0
0.0566666685 -0.0250000004 0
0.0533333346 -0.0250000004 0
0.0500000007 -0.0250000004 0
0.0466666669 -0.0250000004 0
0.043333333 -0.0250000004 0
0.0399999991 -0.0250000004 0
0.0366666652 -0.0250000004 0
0.0333333351 -0.0250000004 0
0.0299999993 -0.0250000004 0
0.0266666673 -0.0250000004 0
0.0233333334 -0.0250000004 0
0.0199999996 -0.0250000004 0
0.0166666675 -0.0250000004 0
0.0133333337 -0.0250000004 0
0.00999999978 -0.0250000004 0
0.00666666683 -0.0250000004 0
0.00333333341 -0.0250000004 0
0 -0.0250000004 0
0.100000001 -0.0283333343 0
0.0966666639 -0.0283333343 0
0.0933333337 -0.0283333343 0
0.0900000036 -0.0283333343 0
0.086666666 -0.0283333343 0
0.0833333358 -0.0283333343 0
0.0799999982 -0.0283333343 0
0.0766666681 -0.0283333343 0
0.0733333305 -0.0283333343 0
0.0700000003 -0.0283333343 0
0.0666666701 -0.0283333343 0
0.0633333325 -0.0283333343 0
0.0599999987 -0.0283333343 0
0.0566666685 -0.0283333343 0
0.0533333346 -0.0283333343 0
0.0500000007 -0.0283333343 0
0.0466666669 -0.0283333343 0
0.043333333 -0.0283333343 0
0.0399999991 -0.0283333343 0
0.0366666652 -0.0283333343 0
0.0333333351 -0.0283333343 0
0.0299999993 -0.0283333343 0
0.0266666673 -0.0283333343 0
0.0233333334 -0.0283333343 0
0.0199999996 -0.0283333343 0
0.0166666675 -0.0283333343 0
0.0133333337 -0.0283333343 0
0.00999999978 -0.0283333343 0
0.00666666683 -0.0283333343 0
0.00333333341 -0.0283333343 0
0 -0.0283333343 0
0.100000001 -0.0316666663 0
[...]
POINT_DATA 961
SCALARS Temp float 1
LOOKUP_TABLE default
213.15278675973062
182.73180393869168
167.48503609656927
161.26749362646515
159.1174190708239
158.4602340318773
158.27685814358628
158.22908052470416
158.21727322996554
158.2144746816502
158.21383336716013
158.21369042440827
158.2136592947066
158.21365264945018
158.21365126553295
158.21365103570366
158.2136512655329
158.21365264945
158.21365929472364
158.21369042449254
158.21383336680682
158.21447468241448
158.21727323692528
158.22908052592635
158.27685825545282
158.46023385953328
159.1174197708234
161.2674918308807
167.4850396797325
182.7318421450527
213.15278713314532
182.73185866388596
151.36684070656406
135.6380510866294
129.21970428082287
126.99878705423951
126.31957798417741
126.1299700187354
126.08054973650059
126.06833253086971
126.06543602253545
126.06477210007532
126.06462408710364
126.06459184723296
126.06458496385014
126.06458353013265
126.06458329200768
126.06458353013262
126.06458496385002
126.06459184725057
126.06462408719061
126.06477209970731
126.06543602331543
126.06833253801427
126.08054973747042
126.12997013299909
126.31957779858446
126.99878774675118
129.21970221783386
135.63805444228024
151.36686599077888
182.73184535744943
167.48504229448557
135.63802988977514
119.64983911967042
113.1164916531406
110.85252584889602
110.15924404028222
109.96548771998694
109.91493694137831
109.90242977211366
109.89946235737972
109.89878174833099
109.89862992985906
109.89859684450877
109.89858977744095
109.89858830487913
109.89858806023143
109.89858830487908
109.89858977744088
109.89859684452672
109.89862992994713
109.89878174794787
109.89946235814884
109.90242977927821
109.91493694162524
109.96548783314776
110.15924383403978
110.85252647477222
113.11648924910472
119.649840684082
135.6380537565972
167.48504058553797
161.2674922240336
129.21967534033712
113.11648722673961
106.52801131739922
104.24169199922711
103.54056320204184
103.34435307069386
103.29310067581919
103.28040632392803
103.2773916188497
103.27669957154299
103.2765450828838
103.27651139223528
103.27650419134112
103.27650269004799
103.2765024405233
103.27650269004793
103.27650419134086
103.27651139225316
103.27654508297191
103.27669957114544
103.27739161959227
103.28040633101159
103.29310067516491
103.3443531812568
103.54056297548098
104.24169256465053
106.52800863572716
113.11648854971872
129.21970064968826
161.26749187573742
159.11741958512076
126.99876040567212
110.85252429053376
104.24169531250601
101.94546596223518
101.2405440664354
101.04305441788837
100.99141234698452
100.97860848928973
100.97556490087098
100.97486561095398
100.97470937908305
100.97467528277964
100.9746679901416
100.97466646876497
100.97466621578381
100.97466646876491
100.9746679901414
100.97467528279746
100.97470937917062
100.97486561054424
100.97556490158314
100.97860849626255
100.99141234556072
101.04305452606296
101.24054382724793
101.94546649543955
104.2416925857544
110.85252577078144
126.99878614509011
159.11741976544863
158.4602335806502
126.31955036637703
110.15924164772652
103.54056578279419
101.24054337561219
100.53402998991487
100.33595454011049
100.28411988123446
100.27125829981021
100.2681986434553
100.26749513803276
100.26733785193288
100.26730350213629
100.26729615052469
100.26729461592265
100.26729436062637
100.26729461592255
100.26729615052437
100.2673035021539
100.26733785201957
100.267495137614
100.26819864414223
100.27125830669249
100.2841198793173
100.33595464696806
100.53402974551743
101.24054390523433
103.54056307117976
110.15924319692182
126.31957625405158
158.46023390778328
158.2768578316665
126.12994255169447
109.9654855147507
103.34435587237739
101.04305396510131
100.33595478556626
100.13764332257387
100.08572416583256
100.07283527848598
100.06976751651791
100.06906176540187
100.06890389104967
100.06886939408281
100.06886200704224
100.06886046426037
100.06886020750251
100.06886046426037
100.06886200704191
100.06886939410029
100.0689038911357
100.06906176497719
100.06976751718871
100.0728352853151
100.08572416368497
100.13764342899287
100.33595454034506
101.04305449741682
103.34435316994205
109.9654870883455
126.12996848127973
158.276858199628
158.2290800961823
126.08052214964744
109.91493462129023
103.29310336846758
100.99141178900587
100.28412002383368
100.08572406349411
100.03377190393233
100.02087143962517
100.01779998058915
100.0170931382863
100.01693496213348
100.0169003860476
100.01689297917618
100.01689143165568
100.01689117403082
100.01689143165564
100.01689297917578
100.016900386065
100.01693496221908
100.0170931378584
100.01779998125158
100.02087144643193
100.03377190171155
100.08572416989489
100.28411977881291
100.99141232289138
103.29310066948524
109.91493620192362
126.08054809034616
158.22908047449874
158.2172727988083
126.06830494138572
109.90242745096995
103.28040901718452
100.97860793305082
100.27125844498468
100.07283517903423
100.02087144262273
100.00796656593275
100.00489358296556
100.00418625805304
100.00402793991789
100.00399332455727
100.00398590737248
100.00398435728802
100.00398409918077
100.00398435728785
100.003985907372
100.00399332457465
100.00402794000323
100.0041862576237
100.00489358362476
100.00796657273365
100.02087144039274
100.07283528548622
100.27125820012868
100.97860846752091
103.28040631923395
109.90242903345852
126.06833088482878
158.21727317963257
158.21447424159618
126.06540842384382
109.89946002715438
103.27739430324635
100.97556433594774
100.26819878011868
100.06976740863374
100.01779997519348
100.0048935745786
100.00182002215497
100.00111250294057
100.00095412364264
100.00091949031795
100.00091206816113
100.00091051678375
100.00091025842589
100.00091051678376
100.00091206816066
100.0009194903353
100.00095412372777
100.00111250251052
100.00182002281319
100.00489358137945
100.017799972967
100.06976751511495
100.26819853532962
100.97556487059475
103.27739160557161
109.89946161009792
126.0654343679344
158.21447462300048
158.21383292634167
126.06474450058855
109.89877941736249
103.27670225526012
100.97486504539889
100.26749527411214
100.06906165695821
100.01709313234599
100.00418624912605
100.0011125024019
100.00040491175433
100.00024650831887
100.00021186743027
100.00020444305511
100.00020289107145
100.00020263259188
100.00020289107137
100.0002044430546
100.00021186744752
100.00024650840396
100.00040491132421
100.00111250306006
100.00418625592765
100.01709313012225
100.06906176345058
100.2674950293443
100.97486558009375
103.27669955765369
109.89878100041228
126.06477044482604
158.2138333078758
158.21368998388687
126.06459648792311
109.89862759921922
103.27654776695094
100.97470881389314
100.26733798839132
100.0689037829929
100.01693495658526
100.00402793138493
100.00095412349886
100.00024650871389
100.00008809652489
100.000053452702
100.00004602741144
100.00004447516383
100.00004421662922
100.00004447516372
100.000046027411
100.00005345271931
100.00008809660994
100.0002465082838
100.00095412415715
100.00402793818684
100.01693495436264
100.06890388948875
100.2673377436293
100.97470934859984
103.27654506936042
109.89862918229298
126.0646224321929
158.2136903654492
158.21365885412905
126.06456424799372
109.8985945138118
103.27651407624737
100.97467471753619
100.26730363854347
100.06886928597605
100.01690038045027
100.00399331597589
100.00091949012594
100.00021186777715
100.0000534526538
100.00001880777921
100.00001138213904
100.00000982978464
100.00000957122693
100.00000982978459
100.00001138213858
100.0000188077965
100.00005345273894
100.00021186734692
100.00091949078423
100.00399332277794
100.0169003782281
100.0688693924728
100.26730339378295
100.97467525224579
103.27651137866039
109.8985960968907
126.06459019227057
158.21365923569726
158.21365220885727
126.06455736459507
109.89858744672833
103.27650687533783
100.97466742488311
100.26729628691713
100.06886189892116
100.01689297356478
100.00398589877692
100.00091206795514
100.00020444338801
100.00004602734926
100.00001138212502
100.00000395636113
100.00000240396673
100.00000214539992
100.00000240396655
100.00000395636066
100.00001138214236
100.00004602743441
100.00020444295777
100.0009120686134
100.00398590557904
100.01689297134267
100.0688620054182
100.26729604215699
100.97466795959339
103.27650417775168
109.89858902980832
126.0645833088733
158.21365259042688
158.2136508249407
126.06455593087809
109.89858597416706
103.27650537404543
100.97466590350723
100.26729475231605
100.06886035614033
100.01689142604546
100.00398434869363
100.00091051657898
100.00020289140552
100.0000444751028
100.00000982977181
100.00000240396787
100.00000085155979
100.00000059298982
100.00000085155969
100.00000240396741
100.00000982978916
100.00004447518789
100.00020289097536
100.00091051723722
100.00398435549585
100.01689142382344
100.06886046263737
100.2672945075561
100.97466643821774
103.27650267645946
109.89858755724731
126.0645818751566
158.21365120651043
158.2136505951116
126.06455569275336
109.89858572951962
103.27650512452105
100.97466565052646
100.26729449702005
100.06886009938283
100.01689116842087
100.00398409058678
100.00091025822137
100.00020263292623
100.00004421656853
100.00000957121445
100.00000214540145
100.00000059299018
100.00000033441951
100.00000059299013
100.000002145401
100.00000957123176
100.00004421665362
100.000202632496
100.00091025887961
100.00398409738902
100.0168911661989
100.06886020587994
100.26729425226014
100.97466618523694
103.27650242693515
109.89858731259994
126.06458163703198
158.2136509766814
158.2136508249409
126.06455593087829
109.89858597416732
103.27650537404564
100.97466590350746
100.26729475231639
100.0688603561405
100.0168914260457
100.00398434869386
100.00091051657921
100.0002028914058
100.00004447510304
100.0000098297721
100.00000240396817
100.00000085156006
100.00000059299008
100.00000085155997
100.00000240396771
100.00000982978938
100.00004447518809
100.00020289097559
100.00091051723741
100.00398435549603
100.01689142382367
100.06886046263763
100.2672945075564
100.974666438218
103.27650267645971
109.89858755724762
126.06458187515696
158.21365120651072
158.21365220885804
126.06455736459581
109.89858744672914
103.27650687533871
100.97466742488403
100.26729628691815
100.06886189892228
100.01689297356586
100.00398589877807
100.00091206795624
100.00020444338917
100.00004602735035
100.00001138212619
100.00000395636225
100.00000240396781
100.00000214540106
100.0000024039677
100.00000395636181
100.00001138214341
100.00004602743543
100.00020444295893
100.00091206861457
100.00398590558022
100.01689297134382
100.06886200541933
100.26729604215815
100.97466795959451
103.27650417775286
109.89858902980943
126.06458330887442
158.21365259042793
158.21365885413206
126.06456424799701
109.89859451381542
103.27651407625132
100.97467471754054
100.26730363854823
100.06886928598115
100.01690038045547
100.00399331598116
100.00091949013134
100.0002118677825
100.00005345265915
100.00001880778449
100.00001138214438
100.00000982978999
100.00000957123214
100.0000098297899
100.00001138214397
100.00001880780185
100.0000534527442
100.00021186735228
100.0009194907896
100.00399332278334
100.01690037823346
100.0688693924782
100.26730339378824
100.97467525225102
103.27651137866555
109.89859609689566
126.06459019227539
158.213659235702
158.2136899839032
126.06459648794039
109.89862759923825
103.27654776697194
100.97470881391605
100.26733798841593
100.06890378301874
100.01693495661162
100.00402793141177
100.00095412352589
100.00024650874109
100.00008809655188
100.00005345272895
100.0000460274385
100.00004447519085
100.00004421665619
100.0000444751908
100.00004602743812
100.00005345274634
100.0000880966371
100.00024650831084
100.00095412418416
100.00402793821395
100.01693495438964
100.06890388951562
100.26733774365614
100.97470934862633
103.27654506938646
109.89862918231853
126.06462243221779
158.21369036547304
158.21383292660087
126.06474450085923
109.89877941764632
103.27670225555713
100.97486504570759
100.2674952744297
100.0690616572815
100.0170931326724
100.00418624945397
100.00111250273044
100.000404912083
100.00024650864756
100.00021186775884
100.00020444338374
100.00020289140008
100.0002026329204
100.00020289140002
100.0002044433833
100.00021186777614
100.00024650873266
100.00040491165281
100.00111250338871
100.00418625625596
100.01709313045052
100.06906176377791
100.26749502967033
100.97486558041732
103.27669955797329
109.89878100072612
126.06477044513174
158.21383330817088
158.21447424111267
126.0654084233554
109.89946002668573
103.27739430281167
100.97556433554897
100.26819877974857
100.06976740828188
100.01779997485086
100.00489357423967
100.00182002181701
100.00111250260265
100.00095412330468
100.00091948997998
100.00091206782312
100.00091051644577
100.0009102580878
100.00091051644566
100.00091206782263
100.00091948999729
100.00095412338972
100.00111250217246
100.00182002247521
100.0048935810415
100.01779997262899
100.06976751477684
100.26819853499127
100.9755648702565
103.27739160523437
109.8994616097636
126.06543436760639
158.2144746226829
158.21727280330552
126.06830494610051
109.90242745595874
103.2804090224519
100.97860793855043
100.27125845064188
100.07283518477769
100.02087144840303
100.00796657172431
100.00489358875897
100.00418626384624
100.0040279457109
100.00399333035017
100.0039859131652
100.00398436308072
100.00398410497357
100.00398436308062
100.00398591316474
100.00399333036735
100.00402794579587
100.00418626341624
100.00489358941712
100.00796657852516
100.02087144618146
100.07283529126732
100.27125820589227
100.97860847324941
103.28040632490091
109.90242903902839
126.06833089025888
158.21727318487655
158.22908008726597
126.08052214073601
109.91493461296339
103.29310336098222
100.99141178227174
100.28412001758963
100.08572405747948
100.03377189798897
100.02087143368907
100.01779997464826
100.01709313234221
100.01693495618808
100.01690038010173
100.0168929732303
100.01689142570973
100.0168911680848
100.01689142570966
100.01689297322983
100.01690038011891
100.01693495627303
100.01709313191262
100.01779997530605
100.02087144048723
100.03377189576806
100.0857241639514
100.28411977286638
100.99141231693882
103.293100663533
109.91493619599996
126.08054808451158
158.22908046884112
158.27685793182815
126.12994265678385
109.9654856260476
103.34435598946699
101.04305408634835
100.3359549089767
100.13764344676918
100.08572429016569
100.07283540280403
100.069767640817
100.06906188969248
100.06890401533754
100.06886951836985
100.06886213132917
100.06886058854711
100.0688603317893
100.06886058854711
100.06886213132879
100.0688695183871
100.0689040154224
100.0690618892636
100.06976764147385
100.07283540959541
100.08572428794663
100.13764355318806
100.33595466433707
101.04305462090512
103.34435329238791
109.96548720895677
126.12996859904496
158.27685831342112
158.460233643707
126.31955043945524
110.15924174009083
103.54056589521186
101.24054350066483
100.53403012015353
100.33595467108572
100.28412001194762
100.27125843033238
100.26819877390164
100.26749526845536
100.26733798234872
100.26730363255035
100.26729628093838
100.26729474633632
100.26729449103993
100.26729474633625
100.26729628093798
100.26730363256758
100.26733798243333
100.2674952680279
100.26819877455674
100.27125843710822
100.2841200097329
100.33595477736178
100.5340298757561
101.24054403487085
103.54056319938059
110.15924332253948
126.31957637605863
158.46023402536963
159.11741873766275
126.99875956271013
110.85252351618703
104.24169460118993
101.94546528457845
101.24054339234621
101.04305374084979
100.9914116682488
100.97860780992411
100.97556422131491
100.97486493134646
100.97470869946261
100.97467460315602
100.97466731051732
100.97466578914052
100.9746655361593
100.97466578914039
100.97466731051686
100.97467460317309
100.97470869954653
100.97486493092164
100.97556422196632
100.97860781666792
100.99141166604339
101.04305384678308
101.24054314857491
101.94546581778273
104.2416919091749
110.85252509710219
126.99878547967984
159.1174191195623
161.2674936006153
129.21967698357557
113.11648922181594
106.52801360202942
104.24169432936247
103.54056551518028
103.34435537377078
103.2931029751337
103.28040862212
103.27739391674167
103.27670186936076
103.27654738068404
103.27651369003162
103.27650648913661
103.27650498784328
103.27650473831858
103.27650498784321
103.27650648913617
103.27651369004842
103.27654738076704
103.27670186894039
103.27739391738675
103.28040862880397
103.29310297294617
103.34435547897748
103.54056527283625
104.24169486004918
106.52801092035729
113.11649079814637
129.21970283873344
161.26749398314442
167.48503683880205
135.63802462263524
119.64983572509456
113.1164885005067
110.8525225232716
110.15924063932862
109.96548429246232
109.91493350619162
109.9024263349073
109.89945891967784
109.89877831051314
109.89862649201513
109.8985934066592
109.89858633959018
109.89858486702796
109.89858462238033
109.89858486702798
109.89858633958974
109.89859340667563
109.89862649209664
109.8987783101
109.89945892031264
109.90242634149072
109.9149335040354
109.96548439630885
110.15924039983273
110.8525230484801
113.1164858431187
119.64983728950577
135.63805030684318
167.48503722225215
182.73186448021823
151.36686170199292
135.63807434576017
129.21972633179178
126.99880876569306
126.31959957543091
126.1299915762158
126.08057128505185
126.06835407723295
126.06545756838642
126.06479364581112
126.06464563281429
126.06461339293834
126.06460650955444
126.06460507583672
126.06460483771161
126.06460507583664
126.06460650955401
126.06461339295441
126.06464563289386
126.06479364540819
126.06545756900599
126.06835408366219
126.08057128294499
126.1299916778034
126.31959934090898
126.99880928065276
129.21972372299376
135.63807588402102
151.36688698620083
182.73186486259735
213.1527869180965
182.73181864201723
167.4850384795807
161.26749456171373
159.1174194432389
158.46023424790636
158.2768583161226
158.22908068621055
158.2172733888008
158.21447483986776
158.2138335252396
158.2136905824576
158.2136594527496
158.21365280749177
158.21365142357422
158.213651193745
158.2136514235742
158.21365280749143
158.21365945276509
158.21369058253444
158.21383352485032
158.21447484046615
158.21727339501373
158.2290806841739
158.2768584143577
158.46023402103265
159.11741994166647
161.26749203530176
167.4850399703415
182.73184315956104
213.1527872915314
