# vtk DataFile Version 2.0
Unstructured Grid Example
ASCII
DATASET UNSTRUCTURED_GRID

POINTS 961.0 float
0.100000001 0.00499999989 0
0.0966666639 0.00499999989 0
0.0933333337 0.00499999989 0
0.0900000036 0.00499999989 0
0.086666666 0.00499999989 0
0.0833333358 0.00499999989 0
0.0799999982 0.00499999989 0
0.0766666681 0.00499999989 0
0.0733333305 0.00499999989 0
0.0700000003 0.00499999989 0
0.0666666701 0.00499999989 0
0.0633333325 0.00499999989 0
0.0599999987 0.00499999989 0
0.0566666685 0.00499999989 0
0.0533333346 0.00499999989 0
0.0500000007 0.00499999989 0
0.0466666669 0.00499999989 0
0.043333333 0.00499999989 0
0.0399999991 0.00499999989 0
0.0366666652 0.00499999989 0
0.0333333351 0.00499999989 0
0.0299999993 0.00499999989 0
0.0266666673 0.00499999989 0
0.0233333334 0.00499999989 0
0.0199999996 0.00499999989 0
0.0166666675 0.00499999989 0
0.0133333337 0.00499999989 0
0.00999999978 0.00499999989 0
0.00666666683 0.00499999989 0
0.00333333341 0.00499999989 0
0.0 0.00499999989 0
0.100000001 0.00166666671 0
0.0966666639 0.00166666671 0
0.0933333337 0.00166666671 0
0.0900000036 0.00166666671 0
0.086666666 0.00166666671 0
0.0833333358 0.00166666671 0
0.0799999982 0.00166666671 0
0.0766666681 0.00166666671 0
0.0733333305 0.00166666671 0
0.0700000003 0.00166666671 0
0.0666666701 0.00166666671 0
0.0633333325 0.00166666671 0
0.0599999987 0.00166666671 0
0.0566666685 0.00166666671 0
0.0533333346 0.00166666671 0
0.0500000007 0.00166666671 0
0.0466666669 0.00166666671 0
0.043333333 0.00166666671 0
0.0399999991 0.00166666671 0
0.0366666652 0.00166666671 0
0.0333333351 0.00166666671 0
0.0299999993 0.00166666671 0
0.0266666673 0.00166666671 0
0.0233333334 0.00166666671 0
0.0199999996 0.00166666671 0
0.0166666675 0.00166666671 0
0.0133333337 0.00166666671 0
0.00999999978 0.00166666671 0
0.00666666683 0.00166666671 0
0.00333333341 0.00166666671 0
0.0 0.00166666671 0
0.100000001 -0.00166666671 0
0.0966666639 -0.00166666671 0
0.0933333337 -0.00166666671 0
0.0900000036 -0.00166666671 0
0.086666666 -0.00166666671 0
0.0833333358 -0.00166666671 0
0.0799999982 -0.00166666671 0
0.0766666681 -0.00166666671 0
0.0733333305 -0.00166666671 0
0.0700000003 -0.00166666671 0
0.0666666701 -0.00166666671 0
0.0633333325 -0.00166666671 0
0.0599999987 -0.00166666671 0
0.0566666685 -0.00166666671 0
0.0533333346 -0.00166666671 0
0.0500000007 -0.00166666671 0
0.0466666669 -0.00166666671 0
0.043333333 -0.00166666671 0
0.0399999991 -0.00166666671 0
0.0366666652 -0.00166666671 0
0.0333333351 -0.00166666671 0
0.0299999993 -0.00166666671 0
0.0266666673 -0.00166666671 0
0.0233333334 -0.00166666671 0
0.0199999996 -0.00166666671 0
0.0166666675 -0.00166666671 0
0.0133333337 -0.00166666671 0
0.00999999978 -0.00166666671 0
0.00666666683 -0.00166666671 0
0.00333333341 -0.00166666671 0
0.0 -0.00166666671 0
0.100000001 -0.00499999989 0
0.0966666639 -0.00499999989 0
0.0933333337 -0.00499999989 0
0.0900000036 -0.00499999989 0
0.086666666 -0.00499999989 0
0.0833333358 -0.00499999989 0
0.0799999982 -0.00499999989 0
0.0766666681 -0.00499999989 0
0.0733333305 -0.00499999989 0
0.0700000003 -0.00499999989 0
0.0666666701 -0.00499999989 0
0.0633333325 -0.00499999989 0
0.0599999987 -0.00499999989 0
0.0566666685 -0.00499999989 0
0.0533333346 -0.00499999989 0
0.0500000007 -0.00499999989 0
0.0466666669 -0.00499999989 0
0.043333333 -0.00499999989 0
0.0399999991 -0.00499999989 0
0.0366666652 -0.00499999989 0
0.0333333351 -0.00499999989 0
0.0299999993 -0.00499999989 0
0.0266666673 -0.00499999989 0
0.0233333334 -0.00499999989 0
0.0199999996 -0.00499999989 0
0.0166666675 -0.00499999989 0
0.0133333337 -0.00499999989 0
0.00999999978 -0.00499999989 0
0.00666666683 -0.00499999989 0
0.00333333341 -0.00499999989 0
0.0 -0.00499999989 0
0.100000001 -0.00833333377 0
0.0966666639 -0.00833333377 0
0.0933333337 -0.00833333377 0
0.0900000036 -0.00833333377 0
0.086666666 -0.00833333377 0
0.0833333358 -0.00833333377 0
0.0799999982 -0.00833333377 0
0.0766666681 -0.00833333377 0
0.0733333305 -0.00833333377 0
0.0700000003 -0.00833333377 0
0.0666666701 -0.00833333377 0
0.0633333325 -0.00833333377 0
0.0599999987 -0.00833333377 0
0.0566666685 -0.00833333377 0
0.0533333346 -0.00833333377 0
0.0500000007 -0.00833333377 0
0.0466666669 -0.00833333377 0
0.043333333 -0.00833333377 0
0.0399999991 -0.00833333377 0
0.0366666652 -0.00833333377 0
0.0333333351 -0.00833333377 0
0.0299999993 -0.00833333377 0
0.0266666673 -0.00833333377 0
0.0233333334 -0.00833333377 0
0.0199999996 -0.00833333377 0
0.0166666675 -0.00833333377 0
0.0133333337 -0.00833333377 0
0.00999999978 -0.00833333377 0
0.00666666683 -0.00833333377 0
0.00333333341 -0.00833333377 0
0.0 -0.00833333377 0
0.100000001 -0.0116666667 0
0.0966666639 -0.0116666667 0
0.0933333337 -0.0116666667 0
0.0900000036 -0.0116666667 0
0.086666666 -0.0116666667 0
0.0833333358 -0.0116666667 0
0.0799999982 -0.0116666667 0
0.0766666681 -0.0116666667 0
0.0733333305 -0.0116666667 0
0.0700000003 -0.0116666667 0
0.0666666701 -0.0116666667 0
0.0633333325 -0.0116666667 0
0.0599999987 -0.0116666667 0
0.0566666685 -0.0116666667 0
0.0533333346 -0.0116666667 0
0.0500000007 -0.0116666667 0
0.0466666669 -0.0116666667 0
0.043333333 -0.0116666667 0
0.0399999991 -0.0116666667 0
0.0366666652 -0.0116666667 0
0.0333333351 -0.0116666667 0
0.0299999993 -0.0116666667 0
0.0266666673 -0.0116666667 0
0.0233333334 -0.0116666667 0
0.0199999996 -0.0116666667 0
0.0166666675 -0.0116666667 0
0.0133333337 -0.0116666667 0
0.00999999978 -0.0116666667 0
0.00666666683 -0.0116666667 0
0.00333333341 -0.0116666667 0
0.0 -0.0116666667 0
0.100000001 -0.0149999997 0
0.0966666639 -0.0149999997 0
0.0933333337 -0.0149999997 0
0.0900000036 -0.0149999997 0
0.086666666 -0.0149999997 0
0.0833333358 -0.0149999997 0
0.0799999982 -0.0149999997 0
0.0766666681 -0.0149999997 0
0.0733333305 -0.0149999997 0
0.0700000003 -0.0149999997 0
0.0666666701 -0.0149999997 0
0.0633333325 -0.0149999997 0
0.0599999987 -0.0149999997 0
0.0566666685 -0.0149999997 0
0.0533333346 -0.0149999997 0
0.0500000007 -0.0149999997 0
0.0466666669 -0.0149999997 0
0.043333333 -0.0149999997 0
0.0399999991 -0.0149999997 0
0.0366666652 -0.0149999997 0
0.0333333351 -0.0149999997 0
0.0299999993 -0.0149999997 0
0.0266666673 -0.0149999997 0
0.0233333334 -0.0149999997 0
0.0199999996 -0.0149999997 0
0.0166666675 -0.0149999997 0
0.0133333337 -0.0149999997 0
0.00999999978 -0.0149999997 0
0.00666666683 -0.0149999997 0
0.00333333341 -0.0149999997 0
0.0 -0.0149999997 0
0.100000001 -0.0183333326 0
0.0966666639 -0.0183333326 0
0.0933333337 -0.0183333326 0
0.0900000036 -0.0183333326 0
0.086666666 -0.0183333326 0
0.0833333358 -0.0183333326 0
0.0799999982 -0.0183333326 0
0.0766666681 -0.0183333326 0
0.0733333305 -0.0183333326 0
0.0700000003 -0.0183333326 0
0.0666666701 -0.0183333326 0
0.0633333325 -0.0183333326 0
0.0599999987 -0.0183333326 0
0.0566666685 -0.0183333326 0
0.0533333346 -0.0183333326 0
0.0500000007 -0.0183333326 0
0.0466666669 -0.0183333326 0
0.043333333 -0.0183333326 0
0.0399999991 -0.0183333326 0
0.0366666652 -0.0183333326 0
0.0333333351 -0.0183333326 0
0.0299999993 -0.0183333326 0
0.0266666673 -0.0183333326 0
0.0233333334 -0.0183333326 0
0.0199999996 -0.0183333326 0
0.0166666675 -0.0183333326 0
0.0133333337 -0.0183333326 0
0.00999999978 -0.0183333326 0
0.00666666683 -0.0183333326 0
0.00333333341 -0.0183333326 0
0.0 -0.0183333326 0
0.100000001 -0.0216666665 0
0.0966666639 -0.0216666665 0
0.0933333337 -0.0216666665 0
0.0900000036 -0.0216666665 0
0.086666666 -0.0216666665 0
0.0833333358 -0.0216666665 0
0.0799999982 -0.0216666665 0
0.0766666681 -0.0216666665 0
0.0733333305 -0.0216666665 0
0.0700000003 -0.0216666665 0
0.0666666701 -0.0216666665 0
0.0633333325 -0.0216666665 0
0.0599999987 -0.0216666665 0
0.0566666685 -0.0216666665 0
0.0533333346 -0.0216666665 0
0.0500000007 -0.0216666665 0
0.0466666669 -0.0216666665 0
0.043333333 -0.0216666665 0
0.0399999991 -0.0216666665 0
0.0366666652 -0.0216666665 0
0.0333333351 -0.0216666665 0
0.0299999993 -0.0216666665 0
0.0266666673 -0.0216666665 0
0.0233333334 -0.0216666665 0
0.0199999996 -0.0216666665 0
0.0166666675 -0.0216666665 0
0.0133333337 -0.0216666665 0
0.00999999978 -0.0216666665 0
0.00666666683 -0.0216666665 0
0.00333333341 -0.0216666665 0
0.0 -0.0216666665 0
0.100000001 -0.0250000004 0
0.0966666639 -0.0250000004 0
0.0933333337 -0.0250000004 0
0.0900000036 -0.0250000004 0
0.086666666 -0.0250000004 0
0.0833333358 -0.0250000004 0
0.0799999982 -0.0250000004 0
0.0766666681 -0.0250000004 0
0.0733333305 -0.0250000004 0
0.0700000003 -0.0250000004 0
0.0666666701 -0.0250000004 0
0.0633333325 -0.0250000004 0
0.0599999987 -0.0250000004 0
0.0566666685 -0.0250000004 0
0.0533333346 -0.0250000004 0
0.0500000007 -0.0250000004 0
0.0466666669 -0.0250000004 0
0.043333333 -0.0250000004 0
0.0399999991 -0.0250000004 0
0.0366666652 -0.0250000004 0
0.0333333351 -0.0250000004 0
0.0299999993 -0.0250000004 0
0.0266666673 -0.0250000004 0
0.0233333334 -0.0250000004 0
0.0199999996 -0.0250000004 0
0.0166666675 -0.0250000004 0
0.0133333337 -0.0250000004 0
0.00999999978 -0.0250000004 0
0.00666666683 -0.0250000004 0
0.00333333341 -0.0250000004 0
0.0 -0.0250000004 0
0.100000001 -0.0283333343 0
0.0966666639 -0.0283333343 0
0.0933333337 -0.0283333343 0
0.0900000036 -0.0283333343 0
0.086666666 -0.0283333343 0
0.0833333358 -0.0283333343 0
0.0799999982 -0.0283333343 0
0.0766666681 -0.0283333343 0
0.0733333305 -0.0283333343 0
0.0700000003 -0.0283333343 0
0.0666666701 -0.0283333343 0
0.0633333325 -0.0283333343 0
0.0599999987 -0.0283333343 0
0.0566666685 -0.0283333343 0
0.0533333346 -0.0283333343 0
0.0500000007 -0.0283333343 0
0.0466666669 -0.0283333343 0
0.043333333 -0.0283333343 0
0.0399999991 -0.0283333343 0
0.0366666652 -0.0283333343 0
0.0333333351 -0.0283333343 0
0.0299999993 -0.0283333343 0
0.0266666673 -0.0283333343 0
0.0233333334 -0.0283333343 0
0.0199999996 -0.0283333343 0
0.0166666675 -0.0283333343 0
0.0133333337 -0.0283333343 0
0.00999999978 -0.0283333343 0
0.00666666683 -0.0283333343 0
0.00333333341 -0.0283333343 0
0.0 -0.0283333343 0
[...]
POINT_DATA 961.0
SCALARS Temp float 1
LOOKUP_TABLE default
213.15280174557338
182.731817099207
167.48504201907593
161.26749580729975
159.1174197901719
158.46023427006793
158.276858240391
158.22908058323162
158.21727327874694
158.21447472806548
158.2138334130224
158.213690470145
158.21365934041577
158.21365269515334
158.21365131123488
158.21365108140523
158.21365131123449
158.21365269515164
158.21365934042566
158.2136904701962
158.21383341251783
158.21447472815785
158.21727328280738
158.2290805723799
158.2768583041505
158.46023391651923
159.11741985601358
161.26749200172918
167.48504006984592
182.73184295918634
213.1527880531038
182.73189328017926
151.36685729887526
135.63805793168308
129.21970670017717
126.99878783780109
126.31957824246513
126.12997012487655
126.08054980181294
126.06833258584771
126.06543607501484
126.06477215197229
126.06462413886892
126.06459189896921
126.06458501558019
126.06458358186133
126.06458334373602
126.064583581861
126.06458501557847
126.0645918989793
126.06462413892102
126.06477215144548
126.06543607508765
126.06833258993318
126.08054978999525
126.12997018791756
126.31957786242268
126.99878784138235
129.21970240835248
135.63805489219877
151.366867011912
182.73184743469685
167.4851009299764
135.63805377077153
119.64984842177577
113.11649524632968
110.85252747691445
110.15924506372758
109.9654885729532
109.91493774941692
109.90243056892388
109.89946315150033
109.89878254182916
109.89863072321714
109.89859763783615
109.89859057076168
109.89858909819854
109.89858885355045
109.89858909819807
109.89859057075988
109.89859763784608
109.89863072326831
109.898782541277
109.89946315151364
109.90243057279666
109.91493773578621
109.96548862988186
110.15924464055017
110.85252731600687
113.11649020342645
119.64984196765873
135.63805588314935
167.48504472881902
161.2675556291278
129.21970320223997
113.11649759464244
106.52801488038315
104.24169327193393
103.54056378511493
103.34435346272707
103.29310101820671
103.2804066540443
103.27739194605218
103.27669989807583
103.27654540926682
103.2765117185855
103.27650451768446
103.27650301638971
103.27650276686474
103.27650301638933
103.27650451768237
103.27651171859506
103.27654540931573
103.27669989749782
103.2773919459833
103.28040665757105
103.293101002434
103.34435351140087
103.54056331670373
104.2416929459293
106.52800915025553
113.1164894608141
129.21970258173945
161.26749588386332
159.11748475776523
126.9987896940399
110.85253552663869
104.24169922189726
101.94546737609858
101.24054472796595
101.04305487174243
100.99141274714135
100.97860887624411
100.97556528470605
100.97486599407543
100.9747097620456
100.9746756657075
100.97466837306206
100.97466685168384
100.97466659870234
100.97466685168347
100.97466837306003
100.9746756657165
100.97470976209162
100.97486599347425
100.97556528455348
100.97860887941006
100.99141272946143
101.04305491303974
101.24054422617323
101.94546693783114
104.24169317286966
110.85252678408757
126.99878821067794
159.1174239253454
158.4602989537462
126.3195797831967
110.15925286194272
103.54056953129422
101.24054453930331
100.53403036653332
100.33595469828718
100.28411998280203
100.27125838745273
100.26819872780958
100.26749522163577
100.26733793536866
100.26730358553567
100.26729623391635
100.26729469931263
100.26729444401603
100.26729469931225
100.26729623391408
100.2673035855441
100.26733793541192
100.267495221016
100.26819872758766
100.27125839032854
100.2841199637625
100.33595473470909
100.53402984599992
101.2405440517005
103.54056336885297
110.15924393172679
126.31957805527675
158.4602378162343
158.27692327096887
126.12997201725463
109.96549674487444
103.34435960128188
101.04305508351246
100.33595510305392
100.137643416353
100.08572420136367
100.07283529964313
100.06976753427402
100.06906178237979
100.06890390785448
100.06886941084994
100.06886202380134
100.06886048101781
100.06886022425948
100.06886048101728
100.06886202379901
100.06886941085779
100.0689039078954
100.06906178174694
100.06976753400392
100.07283530232905
100.08572418153965
100.13764345025724
100.33595457471401
101.04305457872788
103.3443534043117
109.96548776263644
126.12997022517385
158.27686205372825
158.2291455540093
126.08055162999358
109.9149458589218
103.29310709674608
100.99141290010121
100.284120329854
100.08572414379022
100.03377192523067
100.02087144631572
100.0177999838139
100.01709314071641
100.01693496438646
100.01690038826199
100.01689298138238
100.01689143386021
100.01689117623488
100.01689143385964
100.0168929813798
100.01690038826949
100.0169349644258
100.01709314007556
100.0177999835153
100.02087144889886
100.03377190503504
100.0857241766785
100.28411979883683
100.99141239014364
103.29310089028023
109.91493686328998
126.08054982203186
158.22908431704096
158.217338264116
126.06833442848512
109.90243869388303
103.28041274898361
100.97860904611025
100.27125875187889
100.07283525959478
100.02087146390973
100.00796657251139
100.00489358604706
100.00418626033105
100.0040279420165
100.00399332661684
100.00398590942362
100.00398435933741
100.00398410122972
100.00398435933684
100.00398590942102
100.00399332662408
100.00402794205495
100.00418625968594
100.0048935857341
100.00796657504787
100.02087144356928
100.07283529213872
100.27125822005651
100.97860853474016
103.2804065400864
109.90242969498594
126.0683326167639
158.2172770224711
158.21453970754686
126.06543791139437
109.89947127018507
103.27739803477161
100.97556544837349
100.26819908610966
100.06976748812367
100.01779999532363
100.00489357996351
100.00182002402927
100.00111250400732
100.00095412452882
100.00091949116475
100.00091206899951
100.00091051762037
100.00091025926206
100.0009105176198
100.00091206899684
100.00091949117203
100.00095412456683
100.00111250336013
100.00182002371015
100.00489358248227
100.01779997493456
100.06976752056437
100.26819855406636
100.9755649366435
103.27739182528414
109.89946227052448
126.0654360988137
158.2144784648307
158.21389839216297
126.06477398795913
109.89879066013764
103.2767059864434
100.97486615740175
100.26749557961683
100.06906173591955
100.01709315192355
100.00418625394667
100.00111250370719
100.00040491225032
100.00024650863374
100.00021186770554
100.00020444332203
100.00020289133658
100.00020263285654
100.00020289133595
100.00020444331932
100.00021186771268
100.00024650867154
100.00040491160227
100.00111250338567
100.00418625645942
100.01709313151984
100.06906176833193
100.2674950475169
100.97486564558481
103.27669977681828
109.89878166030427
126.06477217518753
158.2138371492084
158.21375544958167
126.06462597515302
109.89863884183559
103.2765514979557
100.97470992569922
100.26733829368457
100.06890386173262
100.0169349759348
100.00402793597426
100.00095412457134
100.0002465089765
100.00008809660598
100.00005345274363
100.00004602744465
100.00004447519515
100.00004421666009
100.00004447519458
100.00004602744195
100.00005345275072
100.00008809664376
100.00024650832813
100.000954124249
100.00402793848521
100.01693495552705
100.0689038941377
100.26733776157084
100.97470941386212
103.27654528829954
109.89862984196422
126.06462416233998
158.21369420657504
158.21372431982323
126.06459373522092
109.89860575642244
103.2765178072429
100.97467582932968
100.26730394382112
100.06886936469799
100.01690039978071
100.00399332054508
100.00091949117795
100.00021186801897
100.00005345271428
100.00001880780007
100.00001138215144
100.0000098297952
100.00000957123714
100.00000982979466
100.00001138214881
100.00001880780721
100.00005345275191
100.00021186737055
100.0009194908554
100.00399332305554
100.01690037937192
100.06886939710134
100.26730341170415
100.974675317488
103.27651159757991
109.89859675654284
126.06459192239905
158.21366307680555
158.21371767454895
126.0645868518192
109.89859868933519
103.27651060632893
100.97466853667137
100.26729659218893
100.06886197763673
100.0168929928884
100.00398590333923
100.00091206900008
100.00020444362285
100.00004602740265
100.00001138213882
100.00000395636641
100.00000240397009
100.00000214540293
100.00000240396956
100.00000395636376
100.0000113821459
100.00004602744029
100.00020444297436
100.0009120686775
100.00398590584962
100.01689297247941
100.0688620100396
100.26729606007119
100.97466802482865
103.27650439666444
109.89858968945391
126.0645850389955
158.213656431529
158.21371629063108
126.06458541810083
109.89859721677252
103.2765091050349
100.97466701529373
100.26729505758603
100.06886043485379
100.01689144536697
100.00398435325384
100.00091051762173
100.00020289163818
100.00004447515406
100.0000098297834
100.00000240397097
100.0000008515611
100.00000059299073
100.0000008515605
100.00000240396832
100.00000982979051
100.00004447519166
100.00020289098974
100.00091051729912
100.00398435576416
100.01689142495789
100.06886046725668
100.26729452546815
100.9746665034509
103.2765028953701
109.89858821689084
126.0645836052769
158.2136550476107
158.21371606080163
126.06458517997567
109.89859697212452
103.27650885550996
100.97466676231234
100.26729480228943
100.0688601780957
100.01689118774178
100.00398409514635
100.0009102592636
100.00020263315835
100.00004421661907
100.00000957122533
100.00000214540393
100.00000059299082
100.00000033441971
100.00000059299032
100.00000214540131
100.0000095712325
100.00004421665666
100.00020263250985
100.00091025894092
100.00398409765673
100.01689116733273
100.06886021049851
100.26729427017155
100.9746662504695
103.27650264584518
109.89858797224282
126.06458336715157
158.2136548177811
158.21371629063103
126.06458541810079
109.89859721677244
103.27650910503483
100.97466701529369
100.26729505758597
100.06886043485373
100.01689144536697
100.00398435325381
100.00091051762179
100.0002028916382
100.00004447515411
100.00000982978342
100.0000024039709
100.0000008515611
100.0000005929907
100.00000085156054
100.00000240396832
100.00000982979051
100.00004447519166
100.00020289098977
100.00091051729915
100.00398435576412
100.01689142495793
100.06886046725663
100.26729452546819
100.97466650345088
103.2765028953701
109.89858821689081
126.06458360527687
158.2136550476107
158.2137176745486
126.06458685181887
109.89859868933488
103.27651060632864
100.97466853667112
100.2672965921888
100.06886197763663
100.01689299288837
100.00398590333928
100.00091206900007
100.00020444362286
100.0000460274027
100.00001138213885
100.0000039563664
100.00000240397013
100.00000214540297
100.00000240396955
100.00000395636376
100.00001138214584
100.00004602744036
100.00020444297435
100.00091206867754
100.00398590584962
100.01689297247938
100.0688620100396
100.26729606007122
100.97466802482867
103.27650439666445
109.89858968945386
126.06458503899555
158.21365643152896
158.21372431982152
126.06459373521929
109.89860575642095
103.27651780724176
100.97467582932882
100.26730394382054
100.0688693646977
100.01690039978054
100.00399332054508
100.00091949117802
100.00021186801905
100.00005345271428
100.00001880780012
100.00001138215137
100.00000982979518
100.00000957123702
100.00000982979465
100.00001138214877
100.00001880780718
100.00005345275191
100.00021186737062
100.00091949085542
100.0039933230556
100.01690037937188
100.0688693971013
100.26730341170412
100.97467531748802
103.27651159757991
109.89859675654274
126.06459192239909
158.21366307680555
158.21375544957363
126.06462597514508
109.89863884182871
103.27655149795032
100.97470992569552
100.26733829368227
100.0689038617314
100.01693497593425
100.00402793597405
100.00095412457131
100.00024650897652
100.00008809660608
100.0000534527436
100.00004602744461
100.00004447519512
100.00004421666006
100.0000444751946
100.00004602744195
100.00005345275073
100.0000880966438
100.00024650832819
100.00095412424902
100.00402793848515
100.01693495552703
100.06890389413768
100.26733776157084
100.97470941386214
103.27654528829959
109.89862984196418
126.06462416233992
158.21369420657516
158.21389839212492
126.06477398792201
109.89879066010582
103.27670598641936
100.97486615738589
100.26749557960771
100.06906173591514
100.01709315192171
100.00418625394612
100.00111250370715
100.0004049122504
100.0002465086338
100.00021186770559
100.00020444332202
100.00020289133661
100.00020263285657
100.00020289133607
100.0002044433194
100.00021186771271
100.00024650867152
100.00040491160232
100.00111250338564
100.00418625645938
100.01709313151983
100.06906176833195
100.2674950475169
100.97486564558483
103.27669977681825
109.89878166030437
126.06477217518761
158.21383714920833
158.21453970737062
126.06543791122402
109.89947127004235
103.27739803466824
100.97556544830913
100.26819908607585
100.06976748810908
100.01779999531877
100.0048935799625
100.00182002402939
100.00111250400754
100.00095412452895
100.00091949116488
100.00091206899961
100.00091051762048
100.00091025926211
100.00091051761984
100.00091206899693
100.00091949117207
100.00095412456692
100.00111250336019
100.00182002371017
100.00489358248218
100.01779997493462
100.06976752056443
100.26819855406639
100.97556493664354
103.27739182528411
109.89946227052448
126.0654360988137
158.21447846483073
158.21733826332272
126.06833442772523
109.9024386932657
103.28041274855921
100.97860904586712
100.27125875176587
100.07283525955475
100.02087146390075
100.00796657251139
100.00489358604817
100.0041862603317
100.00402794201683
100.00399332661695
100.0039859094237
100.0039843593374
100.00398410122978
100.00398435933685
100.00398590942108
100.0039933266242
100.00402794205512
100.00418625968601
100.00489358573407
100.00796657504797
100.02087144356928
100.07283529213872
100.2712582200565
100.97860853474018
103.28040654008647
109.90242969498594
126.0683326167638
158.21727702247105
158.22914555054734
126.08055162672497
109.9149458563689
103.29310709511748
100.99141289927094
100.28412032953803
100.08572414371447
100.03377192523068
100.02087144632479
100.01779998381886
100.01709314071832
100.01693496438712
100.01690038826221
100.01689298138244
100.01689143386021
100.01689117623488
100.01689143385971
100.01689298137988
100.01690038826952
100.01693496442601
100.01709314007567
100.01779998351533
100.02087144889889
100.03377190503512
100.08572417667857
100.28411979883685
100.99141239014371
103.29310089028029
109.91493686328997
126.08054982203187
158.2290843170407
158.27692325648763
126.12997200378858
109.96549673497957
103.34435959559188
101.0430550811317
100.33595510243616
100.13764341635304
100.08572420143949
100.07283529968319
100.06976753428883
100.06906178238434
100.06890390785573
100.06886941085028
100.06886202380151
100.06886048101784
100.06886022425954
100.06886048101724
100.06886202379904
100.06886941085784
100.06890390789539
100.06906178174702
100.06976753400389
100.07283530232912
100.08572418153972
100.13764345025734
100.3359545747141
101.04305457872788
103.34435340431179
109.9654877626363
126.1299702251738
158.27686205372828
158.46029889581789
126.31957973121818
110.15925282661672
103.54056951452742
101.24054453443378
100.5340303665333
100.33595469890503
100.28411998311826
100.27125838756582
100.2681987278436
100.26749522164495
100.26733793537099
100.26730358553635
100.26729623391647
100.26729469931274
100.26729444401606
100.2672946993122
100.26729623391407
100.26730358554411
100.26733793541186
100.26749522101596
100.26819872758765
100.27125839032863
100.2841199637625
100.3359547347092
100.53402984599991
101.24054405170041
103.54056336885294
110.15924393172672
126.31957805527676
158.4602378162343
159.11748454362947
126.99878950542136
110.8525354196966
104.24169918499567
101.94546737609859
101.2405447328355
101.0430548741233
100.99141274797178
100.97860887648733
100.97556528477048
100.97486599409142
100.97470976204934
100.9746756657084
100.97466837306234
100.97466685168393
100.9746665987025
100.97466685168341
100.97466837305998
100.97467566571642
100.97470976209165
100.97486599347421
100.9755652845534
100.9786088794101
100.99141272946152
101.04305491303973
101.24054422617318
101.94546693783107
104.2416931728696
110.85252678408744
126.9987882106779
159.1174239253456
161.26755485274978
129.21970262241265
113.11649732549947
106.5280148803832
104.24169330883568
103.54056380188179
103.34435346841717
103.29310101983543
103.28040665446886
103.27739194615563
103.27669989809985
103.27654540927223
103.27651171858676
103.27650451768461
103.27650301638978
103.27650276686475
103.27650301638934
103.27650451768241
103.27651171859505
103.2765454093157
103.27669989749772
103.27739194598321
103.28040665757098
103.29310100243406
103.34435351140098
103.54056331670374
104.24169294592926
106.52800915025549
113.116489460814
129.21970258173948
161.26749588386338
167.48509870715822
135.63805184010684
119.6498484217762
113.11649551547335
110.85252758385678
110.15924509905375
109.96548858284815
109.91493775197
109.90243056954131
109.89946315164315
109.89878254186095
109.89863072322402
109.89859763783765
109.89859057076202
109.8985890981986
109.89858885355048
109.89858909819803
109.8985905707599
109.89859763784601
109.89863072326827
109.89878254127699
109.8994631515136
109.90243057279675
109.91493773578627
109.96548862988192
110.15924464055021
110.85252731600683
113.11649020342642
119.64984196765876
135.6380558831494
167.4850447288191
182.73187873813157
151.3668572988819
135.63805986235187
129.21970728000673
126.99878802642004
126.31957829444389
126.12997013834271
126.08054980508166
126.06833258660765
126.06543607518516
126.06477215200948
126.06462413887687
126.06459189897089
126.06458501558056
126.06458358186158
126.06458334373615
126.06458358186099
126.06458501557836
126.06459189897932
126.06462413892105
126.06477215144557
126.06543607508765
126.06833258993328
126.0805497899953
126.12997018791766
126.3195778624226
126.99878784138232
129.21970240835245
135.63805489219874
151.3668670119121
182.73184743469687
213.15280174555338
182.73183164125663
167.4850442418987
161.2674965836801
159.117420004308
158.46023432799646
158.27685825487234
158.22908058669358
158.2172732795403
158.21447472824167
158.21383341306054
158.21369047015315
158.21365934041745
158.21365269515368
158.21365131123503
158.21365108140537
158.21365131123449
158.21365269515167
158.2136593404257
158.21369047019613
158.2138334125178
158.21447472815794
158.21727328280744
158.22908057238004
158.2768583041506
158.4602339165193
159.11741985601353
161.26749200172915
167.48504006984584
182.7318429591865
213.15278805310385
