# vtk DataFile Version 2.0
Unstructured Grid Example
ASCII
DATASET UNSTRUCTURED_GRID

POINTS 961 float
0.100000001 0.00499999989 0
0.0966666639 0.00499999989 0
0.0933333337 0.00499999989 0
0.0900000036 0.00499999989 0
0.086666666 0.00499999989 0
0.0833333358 0.00499999989 0
0.0799999982 0.00499999989 0
0.0766666681 0.00499999989 0
0.0733333305 0.00499999989 0
0.0700000003 0.00499999989 0
0.0666666701 0.00499999989 0
0.0633333325 0.00499999989 0
0.0599999987 0.00499999989 0
0.0566666685 0.00499999989 0
0.0533333346 0.00499999989 0
0.0500000007 0.00499999989 0
0.0466666669 0.00499999989 0
0.043333333 0.00499999989 0
0.0399999991 0.00499999989 0
0.0366666652 0.00499999989 0
0.0333333351 0.00499999989 0
0.0299999993 0.00499999989 0
0.0266666673 0.00499999989 0
0.0233333334 0.00499999989 0
0.0199999996 0.00499999989 0
0.0166666675 0.00499999989 0
0.0133333337 0.00499999989 0
0.00999999978 0.00499999989 0
0.00666666683 0.00499999989 0
0.00333333341 0.00499999989 0
0 0.00499999989 0
0.100000001 0.00166666671 0
0.0966666639 0.00166666671 0
0.0933333337 0.00166666671 0
0.0900000036 0.00166666671 0
0.086666666 0.00166666671 0
0.0833333358 0.00166666671 0
0.0799999982 0.00166666671 0
0.0766666681 0.00166666671 0
0.0733333305 0.00166666671 0
0.0700000003 0.00166666671 0
0.0666666701 0.00166666671 0
0.0633333325 0.00166666671 0
0.0599999987 0.00166666671 0
0.0566666685 0.00166666671 0
0.0533333346 0.00166666671 0
0.0500000007 0.00166666671 0
0.0466666669 0.00166666671 0
0.043333333 0.00166666671 0
0.0399999991 0.00166666671 0
0.0366666652 0.00166666671 0
0.0333333351 0.00166666671 0
0.0299999993 0.00166666671 0
0.0266666673 0.00166666671 0
0.0233333334 0.00166666671 0
0.0199999996 0.00166666671 0
0.0166666675 0.00166666671 0
0.0133333337 0.00166666671 0
0.00999999978 0.00166666671 0
0.00666666683 0.00166666671 0
0.00333333341 0.00166666671 0
0 0.00166666671 0
0.100000001 -0.00166666671 0
0.0966666639 -0.00166666671 0
0.0933333337 -0.00166666671 0
0.0900000036 -0.00166666671 0
0.086666666 -0.00166666671 0
0.0833333358 -0.00166666671 0
0.0799999982 -0.00166666671 0
0.0766666681 -0.00166666671 0
0.0733333305 -0.00166666671 0
0.0700000003 -0.00166666671 0
0.0666666701 -0.00166666671 0
0.0633333325 -0.00166666671 0
0.0599999987 -0.00166666671 0
0.0566666685 -0.00166666671 0
0.0533333346 -0.00166666671 0
0.0500000007 -0.00166666671 0
0.0466666669 -0.00166666671 0
0.043333333 -0.00166666671 0
0.0399999991 -0.00166666671 0
0.0366666652 -0.00166666671 0
0.0333333351 -0.00166666671 0
0.0299999993 -0.00166666671 0
0.0266666673 -0.00166666671 0
0.0233333334 -0.00166666671 0
0.0199999996 -0.00166666671 0
0.0166666675 -0.00166666671 0
0.0133333337 -0.00166666671 0
0.00999999978 -0.00166666671 0
0.00666666683 -0.00166666671 0
0.00333333341 -0.00166666671 0
0 -0.00166666671 0
0.100000001 -0.00499999989 0
0.0966666639 -0.00499999989 0
0.0933333337 -0.00499999989 0
0.0900000036 -0.00499999989 0
0.086666666 -0.00499999989 0
0.0833333358 -0.00499999989 0
0.0799999982 -0.00499999989 0
0.0766666681 -0.00499999989 0
0.0733333305 -0.00499999989 0
0.0700000003 -0.00499999989 0
0.0666666701 -0.00499999989 0
0.0633333325 -0.00499999989 0
0.0599999987 -0.00499999989 0
0.0566666685 -0.00499999989 0
0.0533333346 -0.00499999989 0
0.0500000007 -0.00499999989 0
0.0466666669 -0.00499999989 0
0.043333333 -0.00499999989 0
0.0399999991 -0.00499999989 0
0.0366666652 -0.00499999989 0
0.0333333351 -0.00499999989 0
0.0299999993 -0.00499999989 0
0.0266666673 -0.00499999989 0
0.0233333334 -0.00499999989 0
0.0199999996 -0.00499999989 0
0.0166666675 -0.00499999989 0
0.0133333337 -0.00499999989 0
0.00999999978 -0.00499999989 0
0.00666666683 -0.00499999989 0
0.00333333341 -0.00499999989 0
0 -0.00499999989 0
0.100000001 -0.00833333377 0
0.0966666639 -0.00833333377 0
0.0933333337 -0.00833333377 0
0.0900000036 -0.00833333377 0
0.086666666 -0.00833333377 0
0.0833333358 -0.00833333377 0
0.0799999982 -0.00833333377 0
0.0766666681 -0.00833333377 0
0.0733333305 -0.00833333377 0
0.0700000003 -0.00833333377 0
0.0666666701 -0.00833333377 0
0.0633333325 -0.00833333377 0
0.0599999987 -0.00833333377 0
0.0566666685 -0.00833333377 0
0.0533333346 -0.00833333377 0
0.0500000007 -0.00833333377 0
0.0466666669 -0.00833333377 0
0.043333333 -0.00833333377 0
0.0399999991 -0.00833333377 0
0.0366666652 -0.00833333377 0
0.0333333351 -0.00833333377 0
0.0299999993 -0.00833333377 0
0.0266666673 -0.00833333377 0
0.0233333334 -0.00833333377 0
0.0199999996 -0.00833333377 0
0.0166666675 -0.00833333377 0
0.0133333337 -0.00833333377 0
0.00999999978 -0.00833333377 0
0.00666666683 -0.00833333377 0
0.00333333341 -0.00833333377 0
0 -0.00833333377 0
0.100000001 -0.0116666667 0
0.0966666639 -0.0116666667 0
0.0933333337 -0.0116666667 0
0.0900000036 -0.0116666667 0
0.086666666 -0.0116666667 0
0.0833333358 -0.0116666667 0
0.0799999982 -0.0116666667 0
0.0766666681 -0.0116666667 0
0.0733333305 -0.0116666667 0
0.0700000003 -0.0116666667 0
0.0666666701 -0.0116666667 0
0.0633333325 -0.0116666667 0
0.0599999987 -0.0116666667 0
0.0566666685 -0.0116666667 0
0.0533333346 -0.0116666667 0
0.0500000007 -0.0116666667 0
0.0466666669 -0.0116666667 0
0.043333333 -0.0116666667 0
0.0399999991 -0.0116666667 0
0.0366666652 -0.0116666667 0
0.0333333351 -0.0116666667 0
0.0299999993 -0.0116666667 0
0.0266666673 -0.0116666667 0
0.0233333334 -0.0116666667 0
0.0199999996 -0.0116666667 0
0.0166666675 -0.0116666667 0
0.0133333337 -0.0116666667 0
0.00999999978 -0.0116666667 0
0.00666666683 -0.0116666667 0
0.00333333341 -0.0116666667 0
0 -0.0116666667 0
0.100000001 -0.0149999997 0
0.0966666639 -0.0149999997 0
0.0933333337 -0.0149999997 0
0.0900000036 -0.0149999997 0
0.086666666 -0.0149999997 0
0.0833333358 -0.0149999997 0
0.0799999982 -0.0149999997 0
0.0766666681 -0.0149999997 0
0.0733333305 -0.0149999997 0
0.0700000003 -0.0149999997 0
0.0666666701 -0.0149999997 0
0.0633333325 -0.0149999997 0
0.0599999987 -0.0149999997 0
0.0566666685 -0.0149999997 0
0.0533333346 -0.0149999997 0
0.0500000007 -0.0149999997 0
0.0466666669 -0.0149999997 0
0.043333333 -0.0149999997 0
0.0399999991 -0.0149999997 0
0.0366666652 -0.0149999997 0
0.0333333351 -0.0149999997 0
0.0299999993 -0.0149999997 0
0.0266666673 -0.0149999997 0
0.0233333334 -0.0149999997 0
0.0199999996 -0.0149999997 0
0.0166666675 -0.0149999997 0
0.0133333337 -0.0149999997 0
0.00999999978 -0.0149999997 0
0.00666666683 -0.0149999997 0
0.00333333341 -0.0149999997 0
0 -0.0149999997 0
0.100000001 -0.0183333326 0
0.0966666639 -0.0183333326 0
0.0933333337 -0.0183333326 0
0.0900000036 -0.0183333326 0
0.086666666 -0.0183333326 0
0.0833333358 -0.0183333326 0
0.0799999982 -0.0183333326 0
0.0766666681 -0.0183333326 0
0.0733333305 -0.0183333326 0
0.0700000003 -0.0183333326 0
0.0666666701 -0.0183333326 0
0.0633333325 -0.0183333326 0
0.0599999987 -0.0183333326 0
0.0566666685 -0.0183333326 0
0.0533333346 -0.0183333326 0
0.0500000007 -0.0183333326 0
0.0466666669 -0.0183333326 0
0.043333333 -0.0183333326 0
0.0399999991 -0.0183333326 0
0.0366666652 -0.0183333326 0
0.0333333351 -0.0183333326 0
0.0299999993 -0.0183333326 0
0.0266666673 -0.0183333326 0
0.0233333334 -0.0183333326 0
0.0199999996 -0.0183333326 0
0.0166666675 -0.0183333326 0
0.0133333337 -0.0183333326 0
0.00999999978 -0.0183333326 0
0.00666666683 -0.0183333326 0
0.00333333341 -0.0183333326 0
0 -0.0183333326 0
0.100000001 -0.0216666665 0
0.0966666639 -0.0216666665 0
0.0933333337 -0.0216666665 0
0.0900000036 -0.0216666665 0
0.086666666 -0.0216666665 0
0.0833333358 -0.0216666665 0
0.0799999982 -0.0216666665 0
0.0766666681 -0.0216666665 0
0.0733333305 -0.0216666665 0
0.0700000003 -0.0216666665 0
0.0666666701 -0.0216666665 0
0.0633333325 -0.0216666665 0
0.0599999987 -0.0216666665 0
0.0566666685 -0.0216666665 0
0.0533333346 -0.0216666665 0
0.0500000007 -0.0216666665 0
0.0466666669 -0.0216666665 0
0.043333333 -0.0216666665 0
0.0399999991 -0.0216666665 0
0.0366666652 -0.0216666665 0
0.0333333351 -0.0216666665 0
0.0299999993 -0.0216666665 0
0.0266666673 -0.0216666665 0
0.0233333334 -0.0216666665 0
0.0199999996 -0.0216666665 0
0.0166666675 -0.0216666665 0
0.0133333337 -0.0216666665 0
0.00999999978 -0.0216666665 0
0.00666666683 -0.0216666665 0
0.00333333341 -0.0216666665 0
0 -0.0216666665 0
0.100000001 -0.0250000004 0
0.0966666639 -0.0250000004 0
0.0933333337 -0.0250000004 0
0.0900000036 -0.0250000004 0
0.086666666 -0.0250000004 0
0.0833333358 -0.0250000004 0
0.0799999982 -0.0250000004 0
0.0766666681 -0.0250000004 0
0.0733333305 -0.0250000004 0
0.0700000003 -0.0250000004 0
0.0666666701 -0.0250000004 0
0.0633333325 -0.0250000004 0
0.0599999987 -0.0250000004 0
0.0566666685 -0.0250000004 0
0.0533333346 -0.0250000004 0
0.0500000007 -0.0250000004 0
0.0466666669 -0.0250000004 0
0.043333333 -0.0250000004 0
0.0399999991 -0.0250000004 0
0.0366666652 -0.0250000004 0
0.0333333351 -0.0250000004 0
0.0299999993 -0.0250000004 0
0.0266666673 -0.0250000004 0
0.0233333334 -0.0250000004 0
0.0199999996 -0.0250000004 0
0.0166666675 -0.0250000004 0
0.0133333337 -0.0250000004 0
0.00999999978 -0.0250000004 0
0.00666666683 -0.0250000004 0
0.00333333341 -0.0250000004 0
0 -0.0250000004 0
0.100000001 -0.0283333343 0
0.0966666639 -0.0283333343 0
0.0933333337 -0.0283333343 0
0.0900000036 -0.0283333343 0
0.086666666 -0.0283333343 0
0.0833333358 -0.0283333343 0
0.0799999982 -0.0283333343 0
0.0766666681 -0.0283333343 0
0.0733333305 -0.0283333343 0
0.0700000003 -0.0283333343 0
0.0666666701 -0.0283333343 0
0.0633333325 -0.0283333343 0
0.0599999987 -0.0283333343 0
0.0566666685 -0.0283333343 0
0.0533333346 -0.0283333343 0
0.0500000007 -0.0283333343 0
0.0466666669 -0.0283333343 0
0.043333333 -0.0283333343 0
0.0399999991 -0.0283333343 0
0.0366666652 -0.0283333343 0
0.0333333351 -0.0283333343 0
0.0299999993 -0.0283333343 0
0.0266666673 -0.0283333343 0
0.0233333334 -0.0283333343 0
0.0199999996 -0.0283333343 0
0.0166666675 -0.0283333343 0
0.0133333337 -0.0283333343 0
0.00999999978 -0.0283333343 0
0.00666666683 -0.0283333343 0
0.00333333341 -0.0283333343 0
0 -0.0283333343 0
0.100000001 -0.0316666663 0
[...]
POINT_DATA 961
SCALARS Temp float 1
LOOKUP_TABLE default
213.15280288772314
182.73181811410728
167.4850424296354
161.2674959162941
159.1174197922896
158.46023423803823
158.27685819836128
158.22908053846348
158.21727323327195
158.2144746824168
158.21383336733274
158.2136904244461
158.21365929471474
158.21365264945186
158.21365126553331
158.21365103570375
158.21365126553295
158.21365264945004
158.2136592947238
158.2136904244932
158.21383336680987
158.21447468242732
158.21727323697712
158.2290805261223
158.27685825613648
158.46023386170057
159.1174197771785
161.2674918485647
167.4850397364925
182.73184222913633
213.1527872426854
182.73189631353827
151.36685864421938
135.6380583904489
129.21970682186003
126.99878783924709
126.31957820583779
126.12997007716015
126.0805497510943
126.06833253436221
126.06543602334276
126.06477210025666
126.06462408714339
126.06459184724154
126.06458496385193
126.06458353013304
126.06458329200774
126.06458353013264
126.06458496385008
126.06459184725068
126.0646240871913
126.06477209971061
126.06543602332965
126.06833253807316
126.08054973770042
126.12997013383712
126.31957780138052
126.9987877550704
129.219702240325
135.63805449396241
151.36686618069717
182.73184550685153
167.48510612571417
135.63805477965545
119.6498482886099
113.116494672237
110.8525267499125
110.15924428878691
109.96548778439593
109.91493695726854
109.90242977588113
109.89946235824435
109.89878174852412
109.89862992990123
109.89859684451785
109.89858977744288
109.89858830487958
109.8985880602315
109.89858830487911
109.89858977744092
109.89859684452689
109.89862992994799
109.89878174795159
109.89946235816574
109.90242977935152
109.91493694193133
109.9654878343586
110.159243838473
110.85252648927872
113.11648928850866
119.64984076995312
135.63805387132163
167.4850417619034
161.26755942682476
129.2197051418709
113.11649812737107
106.52801483567414
104.24169302756631
103.5405634806954
103.34435314188963
103.29310069318424
103.28040632800769
103.27739161977917
103.27669957174936
103.27654508292866
103.27651139224484
103.27650419134311
103.2765026900484
103.2765024405234
103.27650269004795
103.2765041913409
103.27651139225334
103.27654508297282
103.27669957114963
103.27739161961188
103.28040633110069
103.29310067555792
103.34435318292294
103.54056298215718
104.24169258915082
106.52800871441916
113.11648874827296
129.21970096663176
161.26749111456093
159.11749049831107
126.99879235299593
110.85253626162502
104.24169918596183
101.94546708995578
101.24054437010544
101.04305449498062
100.99141236567561
100.97860849365755
100.97556490186133
100.97486561117302
100.97470937913047
100.97467528278965
100.97466799014369
100.97466646876535
100.97466621578391
100.97466646876495
100.97466799014144
100.97467528279763
100.9747093791715
100.9748656105486
100.97556490160412
100.97860849636047
100.99141234600785
101.04305452804704
101.24054383571774
101.94546652971242
104.24169271294053
110.85252618276361
126.99878718899959
159.11742100405115
158.46031006395816
126.31958361584496
110.15925405210298
103.54056982056642
101.24054455654715
100.53403030879731
100.3359546211437
100.2841199008778
100.27125830439645
100.2681986444939
100.2674951382621
100.26733785198239
100.26730350214677
100.26729615052683
100.26729461592308
100.26729436062648
100.26729461592258
100.26729615052443
100.2673035021541
100.26733785202036
100.26749513761807
100.268198644162
100.2712583067858
100.2841198797489
100.33595464891762
100.5340297540831
101.24054394162846
103.5405632194335
110.15924375956574
126.3195781762496
158.46024025072717
158.27693431212234
126.12997569808839
109.96549787378086
103.34435991851655
101.0430551585295
100.33595511010556
100.13764340547607
100.08572418600023
100.07283528320559
100.06976751758825
100.06906176563835
100.06890389110083
100.06886939409364
100.06886200704453
100.06886046426081
100.06886020750261
100.06886046426033
100.06886200704191
100.06886939410042
100.06890389113633
100.06906176498046
100.06976751720461
100.07283528538916
100.08572416402282
100.13764343049219
100.33595454678476
101.04305452420571
103.34435327835826
109.96548752250621
126.1299701879721
158.27686441794452
158.2291505190899
126.0805536530066
109.9149466088586
103.29310734584078
100.99141297274535
100.28412034806762
100.08572414679017
100.0337719242874
100.02087144440553
100.01779998167629
100.01709313852697
100.01693496218552
100.01690038605857
100.01689297917841
100.01689143165603
100.01689117403075
100.01689143165554
100.01689297917568
100.01690038606498
100.01693496221947
100.01709313786056
100.01779998126177
100.02087144647705
100.0337719019041
100.08572417067745
100.28411978175204
100.99141233255023
103.29310069498821
109.91493624267929
126.08054812583636
158.22908060548718
158.2173368712816
126.06833492987704
109.90243914125936
103.28041293201957
100.97860910434311
100.27125876701946
100.07283526205939
100.02087146298096
100.00796657072874
100.00489358405893
100.0041862582952
100.00402793996993
100.00399332456784
100.00398590737409
100.00398435728778
100.0039840991802
100.00398435728717
100.00398590737133
100.00399332457403
100.00402794000281
100.00418625762428
100.00489358362881
100.00796657274907
100.02087144043762
100.07283528555885
100.2712581997977
100.97860846254487
103.2804062784523
109.90242877150293
126.0683293987682
158.21726695320865
158.21453889098515
126.06543897109646
109.89947175924297
103.27739820982335
100.97556550182017
100.2681991005641
100.06976749133808
100.01779999550797
100.00489357937235
100.00182002324796
100.00111250318096
100.00095412369208
100.00091949032563
100.00091206815985
100.00091051678066
100.00091025842238
100.00091051678017
100.00091206815709
100.00091949033177
100.00095412372438
100.00111250250761
100.00182002281095
100.00489358137285
100.01779997291024
100.06976751472045
100.26819853309347
100.97556485961543
103.27739155560381
109.89946138866445
126.06543343910997
158.21446897191427
158.21390809433603
126.06477648399044
109.89879136434614
103.27670618315803
100.97486621168586
100.26749559428761
100.06906173960259
100.01709315265235
100.00418625391181
100.00111250348293
100.00040491198074
100.00024650835368
100.0002118674232
100.00020444303898
100.00020289105343
100.00020263257346
100.00020289105281
100.00020444303605
100.00021186742902
100.00024650838571
100.00040491130655
100.0011125030432
100.0041862559055
100.01709313003796
100.06906176295251
100.26749502675293
100.97486556938311
103.27669952878774
109.89878099358414
126.06477095181629
158.21383817503903
158.21376569430072
126.06462853533606
109.89863955596635
103.27655169701913
100.97470998311076
100.26733830969991
100.06890386594087
100.01693497691758
100.0040279361202
100.00095412450993
100.00024650886562
100.0000880964837
100.00005345261862
100.000046027319
100.00004447506944
100.00004421653439
100.00004447506883
100.00004602731612
100.00005345262448
100.00008809651553
100.00024650819081
100.00095412406898
100.00402793811111
100.01693495429757
100.06890388928102
100.26733774214775
100.9747093407831
103.27654504261245
109.89862918516165
126.06462300311834
158.21369577495412
158.213724042902
126.06459489346535
109.89860625589328
103.27651800851619
100.97467589511064
100.26730396274432
100.06886936942261
100.01690040060889
100.00399332037316
100.0009194907615
100.00021186754476
100.00005345222654
100.0000188073091
100.00001138165962
100.00000982930321
100.00000957074504
100.00000982930258
100.00001138165659
100.00001880731458
100.00005345225762
100.00021186686858
100.00091949031824
100.00399332236019
100.0169003779826
100.06886939275341
100.26730339517874
100.97467525276552
103.27651135408728
109.8985958850636
126.06458936121862
158.21365412353742
158.21371616292473
126.0645871672653
109.89859931841258
103.27651087209202
100.97466862267848
100.2672966148993
100.06886198177862
100.0168929920878
100.00398590130204
100.00091206666453
100.00020444121604
100.00004602497846
100.00001137970985
100.00000395393607
100.0000024015393
100.00000214297192
100.00000240153835
100.00000395393239
100.0000113797141
100.00004602500685
100.00020444053466
100.00091206621197
100.00398590327342
100.01689296943695
100.06886200507344
100.26729604728403
100.97466798026925
103.2765042175853
109.8985889474943
126.0645816349243
158.213646243469
158.2137180396249
126.06458878543388
109.89859847850497
103.27650951310504
100.97466712433534
100.26729507775997
100.06886043091214
100.01689143527305
100.00398434164318
100.00091050563715
100.00020287955647
100.00004446304392
100.00000981766361
100.00000239184742
100.00000083943608
100.0000005808651
100.00000083943445
100.00000239184168
100.00000981766286
100.00004446306146
100.00020287885327
100.00091050514375
100.00398434354385
100.01689141250827
100.06886045403544
100.26729450990395
100.97466648161017
103.2765028582104
109.89858810714189
126.06458325261637
158.2136481196892
158.21373929413244
126.06459174929326
109.89859890314074
103.27650935308459
100.9746668515958
100.26729478106836
100.06886012815534
100.01689113050261
100.0039840360166
100.00091019960013
100.00020257331947
100.00004415671287
100.00000951129094
100.00000208545751
100.00000053303947
100.00000027446634
100.0000005330356
100.00000208544456
100.00000951127183
100.00004415668819
100.0002025725267
100.00091019893209
100.00398403760262
100.01689110721281
100.06886015046597
100.26729421204374
100.97466620730745
103.27650269624343
109.89858852952199
126.0645862140521
158.21366937175037
158.21373934372485
126.06459179764529
109.8985989467325
103.27650938988586
100.97466688340248
100.26729480972105
100.06886015543525
100.0168911569982
100.00398406201481
100.00091022528703
100.00020259882548
100.00004418212318
100.00000953665518
100.00000211080169
100.00000055837553
100.00000029979866
100.00000055836433
100.0000021107654
100.0000095365728
100.00004418194268
100.00020259768263
100.00091022389859
100.00398406224106
100.01689113134807
100.06886017396913
100.26729423511406
100.97466623148053
103.27650272337831
109.89858856177749
126.06458625010298
158.21366940902325
158.21371831170904
126.0645890562255
109.89859871532101
103.27650971754969
100.97466730203057
100.26729524367985
100.0688605901989
100.01689159024959
100.00398449377346
100.00091065601404
100.00020302895096
100.0000446119413
100.00000996633425
100.00000254042448
100.00000098797739
100.00000072939123
100.00000098794591
100.0000025403188
100.00000996604842
100.0000446112209
100.00020302650721
100.00091065177871
100.00398448832986
100.01689155429477
100.06886059159412
100.26729464292058
100.974666613423
103.27650300367152
109.8985882740369
126.06458344704141
158.21364831512338
158.21371736809584
126.06458829089368
109.89860034684423
103.27651173434396
100.97466942189553
100.26729737575437
100.06886271525947
100.0168937059341
100.00398660223156
100.00091275995987
100.00020513047673
100.00004671233302
100.0000120662585
100.00000464017796
100.00000308767352
100.00000282906421
100.00000308759078
100.00000463988388
100.00001206537236
100.00004670987708
100.00020512350082
100.00091274506063
100.00398657415869
100.01689362656023
100.06886264107678
100.26729665528345
100.97466856027887
103.27650479192795
109.89858962939195
126.06458237659076
158.21364706407164
158.21372857148225
126.06459994575559
109.89861024705583
103.27652174743733
100.97467944651868
100.26730735793512
100.06887263862504
100.01690357976292
100.00399644281686
100.00092258170103
100.00021494301542
100.00005652097431
100.00002187345775
100.00001444690581
100.00001289425887
100.00001263559709
100.00001289405836
100.000014446149
100.00002187096794
100.00005651342923
100.00021492146534
100.00092252944155
100.00399632923569
100.01690332530849
100.06887224269035
100.26730610463866
100.97467778722788
103.27651372262139
109.89859819666094
126.06459254195676
158.2136567608765
158.2137911468965
126.06464573754607
109.89865651157758
103.27656794460525
100.97472544628593
100.26735302552302
100.06891798847158
100.01694869573477
100.00404141684233
100.00096748282556
100.00025981221478
100.00010137814945
100.00006672670149
100.00005929899486
100.0000577460304
100.00005748726096
100.00005774558416
100.00005929721063
100.00006672036127
100.00010135722691
100.00025974822522
100.00096731035629
100.00404100183532
100.01694777358898
100.06891628161264
100.26734948165546
100.97472020861707
103.27655490575798
109.89863814510218
126.06463118029988
158.2137120675277
158.21397169304518
126.06485003101167
109.89886354263378
103.27677514704959
100.9749311962055
100.26755694740594
100.06912036888244
100.0171500531899
100.00424221449911
100.00116802493996
100.0004602559133
100.00030178962467
100.00026712879942
100.00025969859894
100.00025814500455
100.00025788603523
100.00025814409207
100.0002596947555
100.0002671141819
100.00030173742714
100.00046008250133
100.00116750523586
100.0042408289576
100.01714676142461
100.06911361496057
100.26754397699403
100.97491044593237
103.27673949696768
109.89881590451662
126.06480177135126
158.21385818325368
158.2148409442352
126.06574534758762
109.89976966054343
103.27767821541475
100.97582546647837
100.26844195355523
100.06999842302177
100.01802397532843
100.00511414862308
100.00203917124911
100.00133114409634
100.00117260342518
100.00113792314527
100.00113048820661
100.00112893350271
100.00112867419827
100.00112893178388
100.00113048063416
100.00113789259775
100.0011724864387
100.00133072282661
100.00203777702205
100.00510998549055
100.01801304795919
100.06997362614194
100.26839234870212
100.97574030432946
103.27754398711843
109.89958993976515
126.06554195141955
158.21456783073347
158.21854622478935
126.06955379909913
109.90360107167379
103.28148077484467
100.97957972666528
100.27215266208216
100.07368016453185
100.02169079553195
100.00877482716164
100.00569783962922
100.0049892402536
100.00483055269945
100.00479583741794
100.00478839460462
100.0047868381766
100.00478657836462
100.00478683517865
100.00478838091546
100.00479577941357
100.00483031678824
100.00498832776918
100.00569453908804
100.00876387015654
100.02165824610154
100.07359718417499
100.27197108382902
100.97924211436948
103.28093461344083
109.90284525798695
126.06865577606364
158.2175527631084
158.2336655767401
126.0850636580548
109.91913357907733
103.29682123909008
100.99467894526171
100.28706257080232
100.08848317678445
100.03644742268081
100.02351634602853
100.02043512375799
100.01972546195012
100.01956652733406
100.0195317579326
100.01952430381077
100.0195227450644
100.01952248455159
100.01952274016523
100.01952428097519
100.01953165749406
100.01956609806511
100.01972369748536
100.02042824378042
100.02349126685526
100.03636393427428
100.08823737549436
100.28645517740114
100.99342487298595
103.29465097443385
109.91596771581499
126.08116483313502
158.22952095965002
158.2922976427638
126.14504290623931
109.9788343616195
103.35544768396711
101.05218794653022
100.3438529263871
100.14493621444932
100.09279202645573
100.07983115448604
100.0767426695924
100.0760313678469
100.0758720850408
100.07583724522824
100.07582977754821
100.07582821629428
100.07582795488887
100.07582820854869
100.07582974197973
100.07583708581161
100.07587137759667
100.07602831271946
100.07672999804255
100.07978128981738
100.09260885043334
100.1443255751908
100.34206863450767
101.04797730614621
103.34734056883684
109.96616695916256
126.1287109724439
158.2749426557036
158.50522204714795
126.36196154094402
110.1930795262757
103.56409235178539
101.2564321837243
100.54574924354364
100.34610164135712
100.29376172157706
100.28075493315733
100.27765645683762
100.27694311946082
100.27678344237295
100.27674852953793
100.27674104997375
100.27673948762829
100.27673922520182
100.27673947485016
100.27674099647808
100.27674829583496
100.27678238183245
100.27693836438428
100.27763575416567
100.28066834042775
100.29341822608826
100.3448312373802
100.5415077581479
101.24413443997405
103.53687166795783
110.14552289652563
126.2972978815599
158.43490144976118
159.2139008499538
127.08162953050278
110.89241809818746
104.24041078161683
101.91712960021805
101.20195269516184
101.0011404869398
100.94854223732115
100.93548201113177
100.9323733075573
100.93165813607393
100.93149814420492
100.93146318059037
100.93145569964396
100.93145414617787
100.93145388342955
100.93145411868291
100.9314556178676
100.93146285745233
100.93149669351095
100.93165145504048
100.93234317145073
100.93535008180038
100.9479873197839
100.99892812753157
101.19372270197066
101.88967499841162
104.16090126604767
110.73337712455329
126.83976280980913
158.94791654483848
161.33644010411876
129.18500067404244
112.912273018236
106.15919026311886
103.81220798122781
103.09111032103779
102.88910885015201
102.83628466717644
102.82318645615953
102.82007224821768
102.819356443164
102.81919638223225
102.81916139349084
102.81915396321891
102.81915246800993
102.81915220719503
102.81915238100845
102.81915380671735
102.81916099813888
102.81919452842213
102.81934796036771
102.8200329902929
102.8230092757569
102.8355087886088
102.88584546397091
103.07810764429287
103.76374003759565
105.99837497594562
112.43624680829735
128.39158829378673
160.36439307766207
166.66115494349756
134.60608095530836
117.65151495292444
110.81017451361855
108.44093422198193
107.71646711920586
107.51398273297411
107.46112795324866
107.44803952298979
107.44493062500928
107.44421693061769
107.44405694603144
107.44402166109032
107.44401468482836
107.44401361411349
107.44401298974209
107.44401309901689
107.44401446012422
107.44402119637907
107.44405499361591
107.44420661310905
107.4448852034152
107.44782884397512
107.46018444436164
107.50989067828674
107.69943789957324
108.37401987562447
110.56226271171225
116.84557314651163
131.95290099169497
163.74697435322943
181.36739681894892
143.81109333216045
126.9201125943713
120.05017880395062
117.68835066407968
116.96679987667858
116.76538889064553
116.7128635036093
116.69984607986301
116.69676538183664
116.69606361237597
116.69589437752094
116.69585950847025
116.69585938693058
116.69585493486126
116.69585422802695
116.69585447566509
116.69585568248051
116.6958623766441
116.69589230273881
116.69605133214289
116.69671428997361
116.69963304467502
116.71185587294421
116.76100753202998
116.9483294610621
117.61397337311016
119.7710617375403
125.91318197726567
140.81234922264468
166.40056031725604
