# vtk DataFile Version 2.0
Unstructured Grid Example
ASCII
DATASET UNSTRUCTURED_GRID

POINTS 961.0 float
0.100000001 0.00499999989 0
0.0966666639 0.00499999989 0
0.0933333337 0.00499999989 0
0.0900000036 0.00499999989 0
0.086666666 0.00499999989 0
0.0833333358 0.00499999989 0
0.0799999982 0.00499999989 0
0.0766666681 0.00499999989 0
0.0733333305 0.00499999989 0
0.0700000003 0.00499999989 0
0.0666666701 0.00499999989 0
0.0633333325 0.00499999989 0
0.0599999987 0.00499999989 0
0.0566666685 0.00499999989 0
0.0533333346 0.00499999989 0
0.0500000007 0.00499999989 0
0.0466666669 0.00499999989 0
0.043333333 0.00499999989 0
0.0399999991 0.00499999989 0
0.0366666652 0.00499999989 0
0.0333333351 0.00499999989 0
0.0299999993 0.00499999989 0
0.0266666673 0.00499999989 0
0.0233333334 0.00499999989 0
0.0199999996 0.00499999989 0
0.0166666675 0.00499999989 0
0.0133333337 0.00499999989 0
0.00999999978 0.00499999989 0
0.00666666683 0.00499999989 0
0.00333333341 0.00499999989 0
0.0 0.00499999989 0
0.100000001 0.00166666671 0
0.0966666639 0.00166666671 0
0.0933333337 0.00166666671 0
0.0900000036 0.00166666671 0
0.086666666 0.00166666671 0
0.0833333358 0.00166666671 0
0.0799999982 0.00166666671 0
0.0766666681 0.00166666671 0
0.0733333305 0.00166666671 0
0.0700000003 0.00166666671 0
0.0666666701 0.00166666671 0
0.0633333325 0.00166666671 0
0.0599999987 0.00166666671 0
0.0566666685 0.00166666671 0
0.0533333346 0.00166666671 0
0.0500000007 0.00166666671 0
0.0466666669 0.00166666671 0
0.043333333 0.00166666671 0
0.0399999991 0.00166666671 0
0.0366666652 0.00166666671 0
0.0333333351 0.00166666671 0
0.0299999993 0.00166666671 0
0.0266666673 0.00166666671 0
0.0233333334 0.00166666671 0
0.0199999996 0.00166666671 0
0.0166666675 0.00166666671 0
0.0133333337 0.00166666671 0
0.00999999978 0.00166666671 0
0.00666666683 0.00166666671 0
0.00333333341 0.00166666671 0
0.0 0.00166666671 0
0.100000001 -0.00166666671 0
0.0966666639 -0.00166666671 0
0.0933333337 -0.00166666671 0
0.0900000036 -0.00166666671 0
0.086666666 -0.00166666671 0
0.0833333358 -0.00166666671 0
0.0799999982 -0.00166666671 0
0.0766666681 -0.00166666671 0
0.0733333305 -0.00166666671 0
0.0700000003 -0.00166666671 0
0.0666666701 -0.00166666671 0
0.0633333325 -0.00166666671 0
0.0599999987 -0.00166666671 0
0.0566666685 -0.00166666671 0
0.0533333346 -0.00166666671 0
0.0500000007 -0.00166666671 0
0.0466666669 -0.00166666671 0
0.043333333 -0.00166666671 0
0.0399999991 -0.00166666671 0
0.0366666652 -0.00166666671 0
0.0333333351 -0.00166666671 0
0.0299999993 -0.00166666671 0
0.0266666673 -0.00166666671 0
0.0233333334 -0.00166666671 0
0.0199999996 -0.00166666671 0
0.0166666675 -0.00166666671 0
0.0133333337 -0.00166666671 0
0.00999999978 -0.00166666671 0
0.00666666683 -0.00166666671 0
0.00333333341 -0.00166666671 0
0.0 -0.00166666671 0
0.100000001 -0.00499999989 0
0.0966666639 -0.00499999989 0
0.0933333337 -0.00499999989 0
0.0900000036 -0.00499999989 0
0.086666666 -0.00499999989 0
0.0833333358 -0.00499999989 0
0.0799999982 -0.00499999989 0
0.0766666681 -0.00499999989 0
0.0733333305 -0.00499999989 0
0.0700000003 -0.00499999989 0
0.0666666701 -0.00499999989 0
0.0633333325 -0.00499999989 0
0.0599999987 -0.00499999989 0
0.0566666685 -0.00499999989 0
0.0533333346 -0.00499999989 0
0.0500000007 -0.00499999989 0
0.0466666669 -0.00499999989 0
0.043333333 -0.00499999989 0
0.0399999991 -0.00499999989 0
0.0366666652 -0.00499999989 0
0.0333333351 -0.00499999989 0
0.0299999993 -0.00499999989 0
0.0266666673 -0.00499999989 0
0.0233333334 -0.00499999989 0
0.0199999996 -0.00499999989 0
0.0166666675 -0.00499999989 0
0.0133333337 -0.00499999989 0
0.00999999978 -0.00499999989 0
0.00666666683 -0.00499999989 0
0.00333333341 -0.00499999989 0
0.0 -0.00499999989 0
0.100000001 -0.00833333377 0
0.0966666639 -0.00833333377 0
0.0933333337 -0.00833333377 0
0.0900000036 -0.00833333377 0
0.086666666 -0.00833333377 0
0.0833333358 -0.00833333377 0
0.0799999982 -0.00833333377 0
0.0766666681 -0.00833333377 0
0.0733333305 -0.00833333377 0
0.0700000003 -0.00833333377 0
0.0666666701 -0.00833333377 0
0.0633333325 -0.00833333377 0
0.0599999987 -0.00833333377 0
0.0566666685 -0.00833333377 0
0.0533333346 -0.00833333377 0
0.0500000007 -0.00833333377 0
0.0466666669 -0.00833333377 0
0.043333333 -0.00833333377 0
0.0399999991 -0.00833333377 0
0.0366666652 -0.00833333377 0
0.0333333351 -0.00833333377 0
0.0299999993 -0.00833333377 0
0.0266666673 -0.00833333377 0
0.0233333334 -0.00833333377 0
0.0199999996 -0.00833333377 0
0.0166666675 -0.00833333377 0
0.0133333337 -0.00833333377 0
0.00999999978 -0.00833333377 0
0.00666666683 -0.00833333377 0
0.00333333341 -0.00833333377 0
0.0 -0.00833333377 0
0.100000001 -0.0116666667 0
0.0966666639 -0.0116666667 0
0.0933333337 -0.0116666667 0
0.0900000036 -0.0116666667 0
0.086666666 -0.0116666667 0
0.0833333358 -0.0116666667 0
0.0799999982 -0.0116666667 0
0.0766666681 -0.0116666667 0
0.0733333305 -0.0116666667 0
0.0700000003 -0.0116666667 0
0.0666666701 -0.0116666667 0
0.0633333325 -0.0116666667 0
0.0599999987 -0.0116666667 0
0.0566666685 -0.0116666667 0
0.0533333346 -0.0116666667 0
0.0500000007 -0.0116666667 0
0.0466666669 -0.0116666667 0
0.043333333 -0.0116666667 0
0.0399999991 -0.0116666667 0
0.0366666652 -0.0116666667 0
0.0333333351 -0.0116666667 0
0.0299999993 -0.0116666667 0
0.0266666673 -0.0116666667 0
0.0233333334 -0.0116666667 0
0.0199999996 -0.0116666667 0
0.0166666675 -0.0116666667 0
0.0133333337 -0.0116666667 0
0.00999999978 -0.0116666667 0
0.00666666683 -0.0116666667 0
0.00333333341 -0.0116666667 0
0.0 -0.0116666667 0
0.100000001 -0.0149999997 0
0.0966666639 -0.0149999997 0
0.0933333337 -0.0149999997 0
0.0900000036 -0.0149999997 0
0.086666666 -0.0149999997 0
0.0833333358 -0.0149999997 0
0.0799999982 -0.0149999997 0
0.0766666681 -0.0149999997 0
0.0733333305 -0.0149999997 0
0.0700000003 -0.0149999997 0
0.0666666701 -0.0149999997 0
0.0633333325 -0.0149999997 0
0.0599999987 -0.0149999997 0
0.0566666685 -0.0149999997 0
0.0533333346 -0.0149999997 0
0.0500000007 -0.0149999997 0
0.0466666669 -0.0149999997 0
0.043333333 -0.0149999997 0
0.0399999991 -0.0149999997 0
0.0366666652 -0.0149999997 0
0.0333333351 -0.0149999997 0
0.0299999993 -0.0149999997 0
0.0266666673 -0.0149999997 0
0.0233333334 -0.0149999997 0
0.0199999996 -0.0149999997 0
0.0166666675 -0.0149999997 0
0.0133333337 -0.0149999997 0
0.00999999978 -0.0149999997 0
0.00666666683 -0.0149999997 0
0.00333333341 -0.0149999997 0
0.0 -0.0149999997 0
0.100000001 -0.0183333326 0
0.0966666639 -0.0183333326 0
0.0933333337 -0.0183333326 0
0.0900000036 -0.0183333326 0
0.086666666 -0.0183333326 0
0.0833333358 -0.0183333326 0
0.0799999982 -0.0183333326 0
0.0766666681 -0.0183333326 0
0.0733333305 -0.0183333326 0
0.0700000003 -0.0183333326 0
0.0666666701 -0.0183333326 0
0.0633333325 -0.0183333326 0
0.0599999987 -0.0183333326 0
0.0566666685 -0.0183333326 0
0.0533333346 -0.0183333326 0
0.0500000007 -0.0183333326 0
0.0466666669 -0.0183333326 0
0.043333333 -0.0183333326 0
0.0399999991 -0.0183333326 0
0.0366666652 -0.0183333326 0
0.0333333351 -0.0183333326 0
0.0299999993 -0.0183333326 0
0.0266666673 -0.0183333326 0
0.0233333334 -0.0183333326 0
0.0199999996 -0.0183333326 0
0.0166666675 -0.0183333326 0
0.0133333337 -0.0183333326 0
0.00999999978 -0.0183333326 0
0.00666666683 -0.0183333326 0
0.00333333341 -0.0183333326 0
0.0 -0.0183333326 0
0.100000001 -0.0216666665 0
0.0966666639 -0.0216666665 0
0.0933333337 -0.0216666665 0
0.0900000036 -0.0216666665 0
0.086666666 -0.0216666665 0
0.0833333358 -0.0216666665 0
0.0799999982 -0.0216666665 0
0.0766666681 -0.0216666665 0
0.0733333305 -0.0216666665 0
0.0700000003 -0.0216666665 0
0.0666666701 -0.0216666665 0
0.0633333325 -0.0216666665 0
0.0599999987 -0.0216666665 0
0.0566666685 -0.0216666665 0
0.0533333346 -0.0216666665 0
0.0500000007 -0.0216666665 0
0.0466666669 -0.0216666665 0
0.043333333 -0.0216666665 0
0.0399999991 -0.0216666665 0
0.0366666652 -0.0216666665 0
0.0333333351 -0.0216666665 0
0.0299999993 -0.0216666665 0
0.0266666673 -0.0216666665 0
0.0233333334 -0.0216666665 0
0.0199999996 -0.0216666665 0
0.0166666675 -0.0216666665 0
0.0133333337 -0.0216666665 0
0.00999999978 -0.0216666665 0
0.00666666683 -0.0216666665 0
0.00333333341 -0.0216666665 0
0.0 -0.0216666665 0
0.100000001 -0.0250000004 0
0.0966666639 -0.0250000004 0
0.0933333337 -0.0250000004 0
0.0900000036 -0.0250000004 0
0.086666666 -0.0250000004 0
0.0833333358 -0.0250000004 0
0.0799999982 -0.0250000004 0
0.0766666681 -0.0250000004 0
0.0733333305 -0.0250000004 0
0.0700000003 -0.0250000004 0
0.0666666701 -0.0250000004 0
0.0633333325 -0.0250000004 0
0.0599999987 -0.0250000004 0
0.0566666685 -0.0250000004 0
0.0533333346 -0.0250000004 0
0.0500000007 -0.0250000004 0
0.0466666669 -0.0250000004 0
0.043333333 -0.0250000004 0
0.0399999991 -0.0250000004 0
0.0366666652 -0.0250000004 0
0.0333333351 -0.0250000004 0
0.0299999993 -0.0250000004 0
0.0266666673 -0.0250000004 0
0.0233333334 -0.0250000004 0
0.0199999996 -0.0250000004 0
0.0166666675 -0.0250000004 0
0.0133333337 -0.0250000004 0
0.00999999978 -0.0250000004 0
0.00666666683 -0.0250000004 0
0.00333333341 -0.0250000004 0
0.0 -0.0250000004 0
0.100000001 -0.0283333343 0
0.0966666639 -0.0283333343 0
0.0933333337 -0.0283333343 0
0.0900000036 -0.0283333343 0
0.086666666 -0.0283333343 0
0.0833333358 -0.0283333343 0
0.0799999982 -0.0283333343 0
0.0766666681 -0.0283333343 0
0.0733333305 -0.0283333343 0
0.0700000003 -0.0283333343 0
0.0666666701 -0.0283333343 0
0.0633333325 -0.0283333343 0
0.0599999987 -0.0283333343 0
0.0566666685 -0.0283333343 0
0.0533333346 -0.0283333343 0
0.0500000007 -0.0283333343 0
0.0466666669 -0.0283333343 0
0.043333333 -0.0283333343 0
0.0399999991 -0.0283333343 0
0.0366666652 -0.0283333343 0
0.0333333351 -0.0283333343 0
0.0299999993 -0.0283333343 0
0.0266666673 -0.0283333343 0
0.0233333334 -0.0283333343 0
0.0199999996 -0.0283333343 0
0.0166666675 -0.0283333343 0
0.0133333337 -0.0283333343 0
0.00999999978 -0.0283333343 0
0.00666666683 -0.0283333343 0
0.00333333341 -0.0283333343 0
0.0 -0.0283333343 0
[...]
POINT_DATA 961.0
SCALARS Temp float 1
LOOKUP_TABLE default
226.68260433101017
195.60753008971488
178.32985239366292
170.26500504417126
167.03371095409938
165.8918777343016
165.52688655387956
165.41913944398618
165.3892921364008
165.38143928718546
165.3794588146345
165.3789766478926
165.37886270341315
165.37883646318318
165.37883060655105
165.37882958248653
165.3788306065494
165.3788364631756
165.37886270344492
165.3789766480442
165.37945881291617
165.3814392869811
165.389292145064
165.41913941052368
165.52688665702664
165.89187697669547
167.03371070572877
170.2649986813359
178.3298473544526
195.60755151223808
226.68258356881722
195.60761140887905
163.53663853753667
145.69920944118027
137.36953517084106
134.0306325086694
132.85027008179162
132.4728181275563
132.36135498808142
132.33046920547582
132.32234103958592
132.3202906682129
132.3197913837109
132.3196733729018
132.31964619188457
132.3196401244175
132.31963906337933
132.3196401244158
132.31964619187664
132.31967337293406
132.31979138386478
132.32029066641877
132.32234103930324
132.33046921411193
132.36135495196905
132.47281822772442
132.85026927030634
134.0306321407813
137.36952809475858
145.69920283742164
163.53664300455196
195.6075549119384
178.329921113894
145.6992072912359
127.53723869357106
119.04789741881508
115.64141367333798
114.43591257745302
114.05005265769184
113.93600865136611
113.90438360061545
113.8960552493501
113.89395311606364
113.89344095198248
113.89331983856259
113.89329193080556
113.89328569871043
113.89328460857921
113.89328569870848
113.89329193079705
113.89331983859391
113.89344095213181
113.89395311418274
113.8960552488684
113.90438360858208
113.93600861050415
114.05005274330173
114.435911679177
115.64141302055995
119.04788920693443
127.53722781950302
145.6992023089828
178.32984961970163
170.2650746080405
137.36953595598064
119.04790190470897
110.47593207148067
107.03250267509968
105.81251273163018
105.42157187709681
105.30590317791658
105.27379623503462
105.26533345382113
105.2631956630161
105.26267442875726
105.26255108801664
105.26252264968083
105.2625162956293
105.26251518372239
105.26251629562726
105.26252264967161
105.26255108804598
105.26267442889716
105.26319566104654
105.26533345307324
105.27379624197538
105.30590313150707
105.4215719435166
105.8125117425228
107.03250173020582
110.47592281440829
119.04788858822263
137.36952684989015
170.2649981315237
167.03379045304726
134.0306422736325
115.64142707666086
107.03251172410425
103.57149519836658
102.3441555422991
101.95047988682062
101.8338896117309
101.80149667518404
101.79295096159558
101.79079043015666
101.79026324335217
101.79013840407474
101.79010960092978
101.79010316144205
101.79010203407847
101.79010316144004
101.79010960091983
101.79013840410163
101.79026324348087
101.7907904281066
101.79295096057888
101.80149668107012
101.83388956036315
101.9504799360995
102.3441544844222
103.57149404899089
107.03250191728436
115.64141271669533
134.03063171863423
167.03371225068582
165.89196258452864
132.8502809504737
114.4359264381136
105.81252216979203
102.3441559338899
101.11352738931161
100.71854269488381
100.60148304619602
100.56893622577911
100.56034371167424
100.55816980875807
100.55763899532684
100.55751321446888
100.55748417585495
100.55747767993427
100.55747654219496
100.55747767993205
100.55748417584444
100.55751321449343
100.55763899544482
100.55816980664369
100.56034371043472
100.56893623081542
100.60148299125252
100.71854273256474
101.11352629124458
102.34415468449055
105.81251213788198
114.4359117112584
132.85026992829242
165.89188384091952
165.52697203334762
132.47282957005257
114.05006725620838
105.42158220305762
101.95048122558227
100.71854366205716
100.32300002985066
100.20572581859523
100.17310410045687
100.16448750179742
100.16230637379604
100.16177351582347
100.16164718415216
100.16161800327447
100.16161147230237
100.16161032799339
100.16161147230012
100.16161800326334
100.16164718417473
100.16177351593282
100.16230637163629
100.16448750040205
100.17310410493013
100.20572576153312
100.32300006128771
100.71854254566705
101.95047993677075
105.42157209341727
114.05005241405946
132.47281841043522
165.5268931319178
165.4192185153349
132.36136447851246
113.93602267320338
105.3059133080657
101.83389085125177
100.60148393895632
100.20572574889796
100.08836320928965
100.05570850697698
100.04708062190103
100.04489591456209
100.04436199280686
100.04423536193858
100.04420610081388
100.0441995494206
100.04419840119756
100.04419954941817
100.0442061008023
100.0442353619598
100.04436199291028
100.04489591237406
100.04708062041207
100.05570851113741
100.08836315117999
100.20572577760568
100.60148281558261
101.83388954911379
105.30590317442044
113.93600779788702
132.36135328115014
165.4191395708449
165.3893646898448
132.33047705278256
113.90439727732812
105.2738063116114
101.80149793716019
100.5689371613416
100.1731040786622
100.05570855598272
100.0230406652128
100.01440796044504
100.01222162874642
100.01168719702598
100.01156041555903
100.01153111226553
100.01152454973672
100.01152339932435
100.0115245497342
100.01153111225362
100.01156041557923
100.0116871971258
100.01222162654278
100.0144079589075
100.02304066922535
100.05570849743513
100.17310410635358
100.56893603563961
101.80149663097275
105.27379617114951
113.90438239308247
132.3304658456269
165.38928573421464
165.38151241559038
132.322349435417
113.89606894759905
105.26534350114795
101.79295220117474
100.56034463203298
100.16448746754438
100.04708065921636
100.01440794888362
100.00577336220907
100.00358635454361
100.00305169767397
100.00292484605183
100.00289552214876
100.00288895394749
100.00288780238773
100.0028889539449
100.00289552213677
100.0029248460715
100.00305169777181
100.00358635233223
100.00577336064946
100.01440795283592
100.04708060050903
100.1644874949008
100.56034350562734
101.79295089385116
105.26533335886909
113.8960540610725
132.3223382258335
165.38143345719737
165.37954259375562
132.32030059753583
113.89396706826612
105.26320574048866
101.79079167138919
100.55817072944323
100.16230634026996
100.04489595275687
100.01222161808133
100.00358635543527
100.00139908896988
100.00086434044158
100.00073745857617
100.00070812531322
100.00070155441601
100.00070040229387
100.00070155441338
100.00070812530102
100.00073745859542
100.00086434053824
100.00139908675487
100.0035863538666
100.01222162201115
100.04489589399617
100.16230636752431
100.55816960283829
101.79079036376315
105.263195597746
113.89395218117737
132.32028938737184
165.37946363468944
165.37906098390673
132.31980139001058
113.89345492372438
105.26268451527018
101.79026449199408
100.55763991999932
100.16177348462035
100.04436203272061
100.01168718789557
100.00305170004982
100.00086434191338
100.00032955886739
100.00020266492044
100.00017332770689
100.00016675561527
100.00016560323533
100.00016675561245
100.00017332769445
100.0002026649392
100.00032955896286
100.0008643396957
100.00305169847555
100.0116871918143
100.04436197393811
100.16177351183786
100.55763879333065
101.79026318427832
105.26267437239824
113.89344003648439
132.31979017969226
165.37898202466712
165.37893641911583
132.31968191185103
113.89333358172463
105.26256118323043
101.79013966677473
100.55751414361018
100.16164715277955
100.04423540019398
100.0115604043581
100.00292484625034
100.00073745784319
100.00020266270883
100.00007576427515
100.0000464255093
100.00003985292398
100.00003870043375
100.0000398529209
100.00004642549605
100.00007576429199
100.00020266280046
100.0007374556183
100.00292484466337
100.01156040825575
100.0442353413781
100.16164717994837
100.55751301687258
101.79013835896983
105.26255104024729
113.89331869435883
132.3196707013983
165.3788574597506
165.37890901831503
132.31965396291253
113.89330586288325
105.26253284058421
101.79011089253672
100.55748510621974
100.16161796457688
100.04420612938803
100.01153109076613
100.00289551188331
100.00070811406634
100.00017331496365
100.0000464149712
100.00001707563489
100.00001050285833
100.00000935032342
100.000010502854
100.00001707561846
100.0000464149809
100.00017331504058
100.00070811181308
100.00289551024574
100.01153109457934
100.04420607043978
100.16161799155158
100.55748397921492
101.79010958438697
105.26252269718248
113.89329097504209
132.31964275195426
165.37883005844836
165.37890679528584
132.31965124843902
113.89330041266318
105.26252666642654
101.79010446238387
100.55747857602563
100.16161138820618
100.04419952970774
100.0115244791297
100.0028888942963
100.00070149366893
100.00016669331853
100.00003979280731
100.00001045326935
100.00000388042099
100.00000272786788
100.00000388041283
100.00001045324179
100.00003979279063
100.00016669333863
100.0007014913025
100.0028888924488
100.01152448258017
100.04419947017573
100.16161141430399
100.55747744778998
101.79010315261941
105.26251652104366
113.8932855225504
132.31964003504876
165.3788278329895
165.3789275438196
132.31965358099845
113.89330000427316
105.26252553806354
101.79010315956916
100.55747722423047
100.1616100194689
100.04419815364774
100.01152309944813
100.00288751275633
100.00070011119506
100.00016531039728
100.0000384096843
100.00000907006113
100.00000249717925
100.00000134461483
100.00000249715866
100.00000906999662
100.00003840957581
100.00016531020883
100.00070010839084
100.00288751005988
100.01152310137458
100.04419809157939
100.1616100416469
100.5574760903624
101.79010184227337
105.26251538330456
113.89328510329565
132.31964235590968
165.37884856981051
165.37892769232792
132.31965372933936
113.89330014421984
105.26252566541274
101.79010327625414
100.55747733321303
100.16161012366062
100.04419825456058
100.01152319813518
100.00288761002365
100.0007002076317
100.00016540639108
100.00003850546312
100.00000916574473
100.00000259282342
100.00000144024031
100.0000025927664
100.00000916556631
100.00003850505281
100.00016540547256
100.00070020320737
100.00288760402269
100.01152319386053
100.04419818176781
100.16161012871561
100.5574761740664
101.79010192441105
105.26251546691628
113.8932851919506
132.31964244859157
165.37884866257505
165.37890758423305
132.31965204247425
113.89330115606381
105.26252735049843
101.79010509266277
100.55747917140596
100.16161195849982
100.044200081913
100.011525019036
100.00288942655274
100.00070202160963
100.00016721905455
100.0000403175224
100.00001097755394
100.0000044045359
100.00000325190778
100.00000440438046
100.00001097704894
100.00004031618441
100.00016721573327
100.00070201149823
100.00288940825935
100.0115249904811
100.04419996522408
100.16161189077997
100.55747790141245
101.79010358547126
105.26251695148757
113.89328596539036
132.31964050086052
165.378828292508
165.37891228297582
132.31965717630862
113.89330892787628
105.26253564515184
101.79011353024475
100.5574876087517
100.16162035927903
100.0442084446679
100.01153335339299
100.00289774321229
100.00071032870507
100.00017552160215
100.00004861815223
100.00001927745916
100.00001270418619
100.00001155144855
100.00001270378733
100.00001927609412
100.00004861418269
100.00017551092579
100.00071029986661
100.00289768163385
100.0115332340796
100.04420815517011
100.1616199921753
100.55748586582891
101.79011134056688
105.2625243452151
113.89329264881103
132.31964443229867
165.378831779714
165.37894889365953
132.3196950420346
113.89334547137508
105.26257245274586
101.7901503067119
100.55752420142231
100.1616567344128
100.04424464059821
100.0115694291667
100.00293375037116
100.00074630188185
100.00021148004879
100.00008457095879
100.00005522833155
100.00004865443908
100.00004750145665
100.0000486534891
100.00005522489859
100.00008456017255
100.00021144870935
100.00074621596157
100.002933546243
100.0115689893086
100.04424370225124
100.16165518320744
100.55752050569687
101.79014520002043
105.26255719906206
113.89332432568659
132.31967686082106
165.37886289101826
165.3791162053304
132.31984882789357
113.89350129623202
105.2627285026561
101.79030568492497
100.5576784790154
100.16180996284395
100.04439709511195
100.01172141039719
100.00308548524768
100.00089792631226
100.00036306136677
100.00023613742215
100.00020679016771
100.00020021491775
100.00019906143777
100.0002002128297
100.00020678221517
100.0002361106373
100.00036297745218
100.00089768180665
100.00308484877412
100.01171991514786
100.04439385912909
100.16180394893003
100.55766703403073
101.7902885147026
105.26269637477886
113.89345891249873
132.31980660012854
165.37900577107706
165.37971194973005
132.32048102334414
113.89414169918615
105.2633691543185
101.79094202346265
100.55830934796064
100.16243619644601
100.04502022816723
100.01234282537561
100.00370609731726
100.00151821743923
100.00098324105407
100.00085628250707
100.00082692541118
100.00082034749684
100.00081919309969
100.00082034326546
100.00082690849668
100.00085622185847
100.00098303703525
100.00151757778936
100.00370427521192
100.01233814818757
100.04500943321851
100.16241434986392
100.55826862539229
101.79087693093857
105.26326737782185
113.89400926572597
132.32033517901252
165.3794956707513
165.38215752329307
132.32299914846655
113.89668702628624
105.26590667725517
101.79345594702659
100.56079818599142
100.16490604225518
100.04747865846187
100.01479563411355
100.00615659146965
100.00396790087417
100.003432673312
100.00330564403107
100.00327626842217
100.00326968584677
100.0032685299207
100.00326967793161
100.00327623539565
100.00330551887448
100.00343222422468
100.00396638692614
100.00615188839828
100.01478236380467
100.04744523713804
100.1648321923502
100.56065353161712
101.79320976146191
105.26552896846438
113.89618574249242
132.32242042424616
165.38149606358218
165.3915271914439
132.3326314004931
113.9063823006705
105.27553509502138
101.80296814469084
100.57020423746681
100.1742408081524
100.05677585057039
100.02407675527623
100.01543203097863
100.01324158553433
100.01270586889765
100.0125787135321
100.01254930734186
100.01254271755954
100.01254155933445
100.01254270385185
100.0125492480493
100.01257847791909
100.012704974237
100.01323836384991
100.01542119455274
100.02404323658288
100.05668242779288
100.17401266247063
100.5697192013237
101.80208017791135
105.27411850083845
113.90443296834717
132.33030986715494
165.38905870218952
165.42562760164748
132.36762422466023
113.94145374531753
105.31020619601455
101.83712137425385
100.60394767342508
100.20774743463463
100.09017586645832
100.05743874679379
100.04878233333638
100.04658867205445
100.04605214000372
100.04592479081354
100.0458953408789
100.04588874142834
100.04588758009656
100.04588871932486
100.04589524270402
100.04592438536942
100.04605052496628
100.04658251411452
100.04876013636469
100.05736412004644
100.08994641222823
100.20711887269995
100.60246364328235
101.83414161138836
105.30512853142282
113.93410911989555
132.35859864791692
165.4161280596709
165.54231088741042
132.48705763771568
114.06047561897344
105.42723307431606
101.95205320509605
100.71749774951724
100.32062786274797
100.20281623593874
100.17000586671094
100.16132964275668
100.1591310605684
100.15859338621235
100.1584657861184
100.15843628379646
100.1584296736997
100.15842850863162
100.15842964007416
100.15843613305154
100.1584651465404
100.15859073869095
100.15912047493941
100.16128920747241
100.16985997793142
100.2023267109804
100.31913598012457
100.71348575467947
101.94301666730343
105.41031390249557
114.03436075966059
132.45361554189162
165.50686867829222
165.91207841672687
132.86412466647832
114.43345399277626
105.79130103462664
102.30887760245167
101.07037297630798
100.67209893964933
100.55386411648061
100.52094204892256
100.51223882942381
100.51003418219916
100.50949522449119
100.50936736722349
100.50933781772855
100.50933120046389
100.50933003155468
100.50933115065794
100.50933760042388
100.50936643890742
100.50949127301202
100.51001777919112
100.51217319259867
100.52069128888901
100.5529607235003
100.66908129926875
101.06127297375114
102.28492693556991
105.74066525767347
114.34734442213423
132.7480114146732
165.7864873374938
166.97629191061404
133.94528871661814
115.48817073732754
106.81389601167996
103.30960630385601
102.06371194808644
101.66325724710741
101.54446923129436
101.5114188843108
101.50268834576467
101.50047830880168
101.49993836006139
101.49981033640925
101.49978077209627
101.499774165423
101.49977299388652
101.49977408600688
101.49978047207306
101.49980908820048
101.49993297868102
101.50045533735974
101.50259314934202
101.51103898310471
101.54302340384146
101.65807832423812
102.0465398026456
103.25855157080007
106.68200133289044
115.23477864235454
133.56958698323075
166.56338037184318
169.71904513487527
136.67617213621506
118.11987071071523
109.32790421867385
105.79059009460529
104.53528516807854
104.13262914662663
104.01337063172672
103.98023197583541
103.97148738757915
103.96927570253123
103.96873568460222
103.9686076881032
103.96857820991893
103.96857167887939
103.96857050686086
103.9685715188893
103.96857777971749
103.96860615901062
103.96872894820258
103.96924658444233
103.97136369616821
103.97972321919951
104.01135853635425
104.12505332228135
104.50848862219547
105.70286277764555
109.07180032014737
117.4569062959773
135.59839894541258
168.4267506214382
175.74797439859236
142.80583469222285
123.55282571478388
114.6562847449032
111.08994690960387
109.82948347893189
109.42604984225336
109.30675859855603
109.27365131645634
109.26492302160838
109.26271741419693
109.26217866664605
109.26205070317666
109.2620217888351
109.26201571747669
109.26201417956241
109.2620151053469
109.26202124371358
109.26204896322528
109.26217117159317
109.26268339988819
109.26477926406864
109.27304753717405
109.30431677552332
109.41658316056164
109.79463508491168
110.96987322303373
114.27132004890485
122.45870918168316
139.69730191196626
172.30451180855408
190.68291550681593
152.29906648284557
133.1132008604196
124.19391697021983
120.63986616402761
119.38506789176662
118.98388672306045
118.86534994407361
118.83244953492982
118.82378922385058
118.8216064409688
118.821061281904
118.82093443345407
118.82091254508167
118.8209031453562
118.82090152762429
118.82090257690712
118.82090850880397
118.8209359784955
118.82105346172125
118.82156950162712
118.82363533722727
118.83182311268564
118.86275515784804
118.97375927828453
119.34731723216775
120.50705906980906
123.76094272209882
131.77458023863767
148.7598385623008
175.18394043710933
