# vtk DataFile Version 2.0
Unstructured Grid Example
ASCII
DATASET UNSTRUCTURED_GRID

POINTS 961 float
0.100000001 0.00499999989 0
0.0966666639 0.00499999989 0
0.0933333337 0.00499999989 0
0.0900000036 0.00499999989 0
0.086666666 0.00499999989 0
0.0833333358 0.00499999989 0
0.0799999982 0.00499999989 0
0.0766666681 0.00499999989 0
0.0733333305 0.00499999989 0
0.0700000003 0.00499999989 0
0.0666666701 0.00499999989 0
0.0633333325 0.00499999989 0
0.0599999987 0.00499999989 0
0.0566666685 0.00499999989 0
0.0533333346 0.00499999989 0
0.0500000007 0.00499999989 0
0.0466666669 0.00499999989 0
0.043333333 0.00499999989 0
0.0399999991 0.00499999989 0
0.0366666652 0.00499999989 0
0.0333333351 0.00499999989 0
0.0299999993 0.00499999989 0
0.0266666673 0.00499999989 0
0.0233333334 0.00499999989 0
0.0199999996 0.00499999989 0
0.0166666675 0.00499999989 0
0.0133333337 0.00499999989 0
0.00999999978 0.00499999989 0
0.00666666683 0.00499999989 0
0.00333333341 0.00499999989 0
0 0.00499999989 0
0.100000001 0.00166666671 0
0.0966666639 0.00166666671 0
0.0933333337 0.00166666671 0
0.0900000036 0.00166666671 0
0.086666666 0.00166666671 0
0.0833333358 0.00166666671 0
0.0799999982 0.00166666671 0
0.0766666681 0.00166666671 0
0.0733333305 0.00166666671 0
0.0700000003 0.00166666671 0
0.0666666701 0.00166666671 0
0.0633333325 0.00166666671 0
0.0599999987 0.00166666671 0
0.0566666685 0.00166666671 0
0.0533333346 0.00166666671 0
0.0500000007 0.00166666671 0
0.0466666669 0.00166666671 0
0.043333333 0.00166666671 0
0.0399999991 0.00166666671 0
0.0366666652 0.00166666671 0
0.0333333351 0.00166666671 0
0.0299999993 0.00166666671 0
0.0266666673 0.00166666671 0
0.0233333334 0.00166666671 0
0.0199999996 0.00166666671 0
0.0166666675 0.00166666671 0
0.0133333337 0.00166666671 0
0.00999999978 0.00166666671 0
0.00666666683 0.00166666671 0
0.00333333341 0.00166666671 0
0 0.00166666671 0
0.100000001 -0.00166666671 0
0.0966666639 -0.00166666671 0
0.0933333337 -0.00166666671 0
0.0900000036 -0.00166666671 0
0.086666666 -0.00166666671 0
0.0833333358 -0.00166666671 0
0.0799999982 -0.00166666671 0
0.0766666681 -0.00166666671 0
0.0733333305 -0.00166666671 0
0.0700000003 -0.00166666671 0
0.0666666701 -0.00166666671 0
0.0633333325 -0.00166666671 0
0.0599999987 -0.00166666671 0
0.0566666685 -0.00166666671 0
0.0533333346 -0.00166666671 0
0.0500000007 -0.00166666671 0
0.0466666669 -0.00166666671 0
0.043333333 -0.00166666671 0
0.0399999991 -0.00166666671 0
0.0366666652 -0.00166666671 0
0.0333333351 -0.00166666671 0
0.0299999993 -0.00166666671 0
0.0266666673 -0.00166666671 0
0.0233333334 -0.00166666671 0
0.0199999996 -0.00166666671 0
0.0166666675 -0.00166666671 0
0.0133333337 -0.00166666671 0
0.00999999978 -0.00166666671 0
0.00666666683 -0.00166666671 0
0.00333333341 -0.00166666671 0
0 -0.00166666671 0
0.100000001 -0.00499999989 0
0.0966666639 -0.00499999989 0
0.0933333337 -0.00499999989 0
0.0900000036 -0.00499999989 0
0.086666666 -0.00499999989 0
0.0833333358 -0.00499999989 0
0.0799999982 -0.00499999989 0
0.0766666681 -0.00499999989 0
0.0733333305 -0.00499999989 0
0.0700000003 -0.00499999989 0
0.0666666701 -0.00499999989 0
0.0633333325 -0.00499999989 0
0.0599999987 -0.00499999989 0
0.0566666685 -0.00499999989 0
0.0533333346 -0.00499999989 0
0.0500000007 -0.00499999989 0
0.0466666669 -0.00499999989 0
0.043333333 -0.00499999989 0
0.0399999991 -0.00499999989 0
0.0366666652 -0.00499999989 0
0.0333333351 -0.00499999989 0
0.0299999993 -0.00499999989 0
0.0266666673 -0.00499999989 0
0.0233333334 -0.00499999989 0
0.0199999996 -0.00499999989 0
0.0166666675 -0.00499999989 0
0.0133333337 -0.00499999989 0
0.00999999978 -0.00499999989 0
0.00666666683 -0.00499999989 0
0.00333333341 -0.00499999989 0
0 -0.00499999989 0
0.100000001 -0.00833333377 0
0.0966666639 -0.00833333377 0
0.0933333337 -0.00833333377 0
0.0900000036 -0.00833333377 0
0.086666666 -0.00833333377 0
0.0833333358 -0.00833333377 0
0.0799999982 -0.00833333377 0
0.0766666681 -0.00833333377 0
0.0733333305 -0.00833333377 0
0.0700000003 -0.00833333377 0
0.0666666701 -0.00833333377 0
0.0633333325 -0.00833333377 0
0.0599999987 -0.00833333377 0
0.0566666685 -0.00833333377 0
0.0533333346 -0.00833333377 0
0.0500000007 -0.00833333377 0
0.0466666669 -0.00833333377 0
0.043333333 -0.00833333377 0
0.0399999991 -0.00833333377 0
0.0366666652 -0.00833333377 0
0.0333333351 -0.00833333377 0
0.0299999993 -0.00833333377 0
0.0266666673 -0.00833333377 0
0.0233333334 -0.00833333377 0
0.0199999996 -0.00833333377 0
0.0166666675 -0.00833333377 0
0.0133333337 -0.00833333377 0
0.00999999978 -0.00833333377 0
0.00666666683 -0.00833333377 0
0.00333333341 -0.00833333377 0
0 -0.00833333377 0
0.100000001 -0.0116666667 0
0.0966666639 -0.0116666667 0
0.0933333337 -0.0116666667 0
0.0900000036 -0.0116666667 0
0.086666666 -0.0116666667 0
0.0833333358 -0.0116666667 0
0.0799999982 -0.0116666667 0
0.0766666681 -0.0116666667 0
0.0733333305 -0.0116666667 0
0.0700000003 -0.0116666667 0
0.0666666701 -0.0116666667 0
0.0633333325 -0.0116666667 0
0.0599999987 -0.0116666667 0
0.0566666685 -0.0116666667 0
0.0533333346 -0.0116666667 0
0.0500000007 -0.0116666667 0
0.0466666669 -0.0116666667 0
0.043333333 -0.0116666667 0
0.0399999991 -0.0116666667 0
0.0366666652 -0.0116666667 0
0.0333333351 -0.0116666667 0
0.0299999993 -0.0116666667 0
0.0266666673 -0.0116666667 0
0.0233333334 -0.0116666667 0
0.0199999996 -0.0116666667 0
0.0166666675 -0.0116666667 0
0.0133333337 -0.0116666667 0
0.00999999978 -0.0116666667 0
0.00666666683 -0.0116666667 0
0.00333333341 -0.0116666667 0
0 -0.0116666667 0
0.100000001 -0.0149999997 0
0.0966666639 -0.0149999997 0
0.0933333337 -0.0149999997 0
0.0900000036 -0.0149999997 0
0.086666666 -0.0149999997 0
0.0833333358 -0.0149999997 0
0.0799999982 -0.0149999997 0
0.0766666681 -0.0149999997 0
0.0733333305 -0.0149999997 0
0.0700000003 -0.0149999997 0
0.0666666701 -0.0149999997 0
0.0633333325 -0.0149999997 0
0.0599999987 -0.0149999997 0
0.0566666685 -0.0149999997 0
0.0533333346 -0.0149999997 0
0.0500000007 -0.0149999997 0
0.0466666669 -0.0149999997 0
0.043333333 -0.0149999997 0
0.0399999991 -0.0149999997 0
0.0366666652 -0.0149999997 0
0.0333333351 -0.0149999997 0
0.0299999993 -0.0149999997 0
0.0266666673 -0.0149999997 0
0.0233333334 -0.0149999997 0
0.0199999996 -0.0149999997 0
0.0166666675 -0.0149999997 0
0.0133333337 -0.0149999997 0
0.00999999978 -0.0149999997 0
0.00666666683 -0.0149999997 0
0.00333333341 -0.0149999997 0
0 -0.0149999997 0
0.100000001 -0.0183333326 0
0.0966666639 -0.0183333326 0
0.0933333337 -0.0183333326 0
0.0900000036 -0.0183333326 0
0.086666666 -0.0183333326 0
0.0833333358 -0.0183333326 0
0.0799999982 -0.0183333326 0
0.0766666681 -0.0183333326 0
0.0733333305 -0.0183333326 0
0.0700000003 -0.0183333326 0
0.0666666701 -0.0183333326 0
0.0633333325 -0.0183333326 0
0.0599999987 -0.0183333326 0
0.0566666685 -0.0183333326 0
0.0533333346 -0.0183333326 0
0.0500000007 -0.0183333326 0
0.0466666669 -0.0183333326 0
0.043333333 -0.0183333326 0
0.0399999991 -0.0183333326 0
0.0366666652 -0.0183333326 0
0.0333333351 -0.0183333326 0
0.0299999993 -0.0183333326 0
0.0266666673 -0.0183333326 0
0.0233333334 -0.0183333326 0
0.0199999996 -0.0183333326 0
0.0166666675 -0.0183333326 0
0.0133333337 -0.0183333326 0
0.00999999978 -0.0183333326 0
0.00666666683 -0.0183333326 0
0.00333333341 -0.0183333326 0
0 -0.0183333326 0
0.100000001 -0.0216666665 0
0.0966666639 -0.0216666665 0
0.0933333337 -0.0216666665 0
0.0900000036 -0.0216666665 0
0.086666666 -0.0216666665 0
0.0833333358 -0.0216666665 0
0.0799999982 -0.0216666665 0
0.0766666681 -0.0216666665 0
0.0733333305 -0.0216666665 0
0.0700000003 -0.0216666665 0
0.0666666701 -0.0216666665 0
0.0633333325 -0.0216666665 0
0.0599999987 -0.0216666665 0
0.0566666685 -0.0216666665 0
0.0533333346 -0.0216666665 0
0.0500000007 -0.0216666665 0
0.0466666669 -0.0216666665 0
0.043333333 -0.0216666665 0
0.0399999991 -0.0216666665 0
0.0366666652 -0.0216666665 0
0.0333333351 -0.0216666665 0
0.0299999993 -0.0216666665 0
0.0266666673 -0.0216666665 0
0.0233333334 -0.0216666665 0
0.0199999996 -0.0216666665 0
0.0166666675 -0.0216666665 0
0.0133333337 -0.0216666665 0
0.00999999978 -0.0216666665 0
0.00666666683 -0.0216666665 0
0.00333333341 -0.0216666665 0
0 -0.0216666665 0
0.100000001 -0.0250000004 0
0.0966666639 -0.0250000004 0
0.0933333337 -0.0250000004 0
0.0900000036 -0.0250000004 0
0.086666666 -0.0250000004 0
0.0833333358 -0.0250000004 0
0.0799999982 -0.0250000004 0
0.0766666681 -0.0250000004 0
0.0733333305 -0.0250000004 0
0.0700000003 -0.0250000004 0
0.0666666701 -0.0250000004 0
0.0633333325 -0.0250000004 0
0.0599999987 -0.0250000004 0
0.0566666685 -0.0250000004 0
0.0533333346 -0.0250000004 0
0.0500000007 -0.0250000004 0
0.0466666669 -0.0250000004 0
0.043333333 -0.0250000004 0
0.0399999991 -0.0250000004 0
0.0366666652 -0.0250000004 0
0.0333333351 -0.0250000004 0
0.0299999993 -0.0250000004 0
0.0266666673 -0.0250000004 0
0.0233333334 -0.0250000004 0
0.0199999996 -0.0250000004 0
0.0166666675 -0.0250000004 0
0.0133333337 -0.0250000004 0
0.00999999978 -0.0250000004 0
0.00666666683 -0.0250000004 0
0.00333333341 -0.0250000004 0
0 -0.0250000004 0
0.100000001 -0.0283333343 0
0.0966666639 -0.0283333343 0
0.0933333337 -0.0283333343 0
0.0900000036 -0.0283333343 0
0.086666666 -0.0283333343 0
0.0833333358 -0.0283333343 0
0.0799999982 -0.0283333343 0
0.0766666681 -0.0283333343 0
0.0733333305 -0.0283333343 0
0.0700000003 -0.0283333343 0
0.0666666701 -0.0283333343 0
0.0633333325 -0.0283333343 0
0.0599999987 -0.0283333343 0
0.0566666685 -0.0283333343 0
0.0533333346 -0.0283333343 0
0.0500000007 -0.0283333343 0
0.0466666669 -0.0283333343 0
0.043333333 -0.0283333343 0
0.0399999991 -0.0283333343 0
0.0366666652 -0.0283333343 0
0.0333333351 -0.0283333343 0
0.0299999993 -0.0283333343 0
0.0266666673 -0.0283333343 0
0.0233333334 -0.0283333343 0
0.0199999996 -0.0283333343 0
0.0166666675 -0.0283333343 0
0.0133333337 -0.0283333343 0
0.00999999978 -0.0283333343 0
0.00666666683 -0.0283333343 0
0.00333333341 -0.0283333343 0
0 -0.0283333343 0
0.100000001 -0.0316666663 0
[...]
POINT_DATA 961
SCALARS Temp float 1
LOOKUP_TABLE default
226.68260433101022
195.60753008971488
178.32985239366295
170.26500504417135
167.03371095409935
165.89187773430154
165.52688655387956
165.41913944398627
165.38929213640088
165.38143928718554
165.37945881463457
165.37897664789256
165.37886270341318
165.37883646318323
165.378830606551
165.37882958248647
165.37883060654937
165.37883646317547
165.37886270344478
165.3789766480443
165.37945881291625
165.38143928698105
165.38929214506396
165.41913941052366
165.52688665702664
165.89187697669544
167.0337107057288
170.26499868133595
178.32984735445274
195.60755151223825
226.68258356881748
195.60761140887908
163.5366385375366
145.6992094411803
137.3695351708411
134.03063250866936
132.85027008179156
132.47281812755625
132.36135498808142
132.33046920547585
132.32234103958598
132.32029066821298
132.31979138371094
132.3196733729018
132.31964619188452
132.31964012441753
132.31963906337927
132.3196401244158
132.31964619187647
132.31967337293395
132.31979138386478
132.32029066641883
132.32234103930318
132.33046921411193
132.3613549519691
132.47281822772442
132.85026927030628
134.0306321407814
137.36952809475872
145.69920283742184
163.5366430045521
195.60755491193856
178.32992111389402
145.69920729123595
127.53723869357107
119.0478974188151
115.64141367333794
114.43591257745301
114.05005265769185
113.93600865136607
113.9043836006155
113.8960552493501
113.89395311606368
113.89344095198251
113.89331983856266
113.8932919308055
113.89328569871032
113.89328460857911
113.89328569870851
113.89329193079699
113.89331983859388
113.89344095213177
113.89395311418276
113.89605524886842
113.9043836085821
113.93600861050415
114.05005274330169
114.43591167917694
115.64141302055998
119.04788920693447
127.5372278195032
145.69920230898293
178.32984961970178
170.2650746080405
137.3695359559806
119.04790190470897
110.47593207148061
107.03250267509962
105.81251273163014
105.42157187709684
105.30590317791659
105.27379623503468
105.26533345382117
105.26319566301615
105.26267442875728
105.26255108801664
105.26252264968082
105.26251629562927
105.2625151837224
105.26251629562728
105.26252264967161
105.26255108804585
105.26267442889714
105.2631956610465
105.26533345307328
105.2737962419754
105.30590313150708
105.42157194351658
105.81251174252277
107.03250173020575
110.47592281440824
119.04788858822273
137.3695268498903
170.2649981315238
167.03379045304723
134.0306422736324
115.64142707666079
107.0325117241042
103.57149519836653
102.34415554229909
101.9504798868206
101.83388961173101
101.80149667518408
101.79295096159561
101.7907904301567
101.79026324335217
101.7901384040748
101.79010960092988
101.79010316144212
101.79010203407847
101.79010316144004
101.79010960091992
101.79013840410167
101.79026324348075
101.79079042810659
101.79295096057884
101.80149668107015
101.8338895603632
101.95047993609951
102.34415448442218
103.57149404899087
107.0325019172843
115.64141271669536
134.0306317186343
167.03371225068594
165.8919625845286
132.85028095047366
114.43592643811354
105.81252216979206
102.34415593388992
101.11352738931166
100.71854269488384
100.60148304619607
100.56893622577923
100.56034371167428
100.55816980875815
100.5576389953269
100.55751321446897
100.55748417585502
100.55747767993432
100.55747654219499
100.55747767993218
100.55748417584451
100.5575132144935
100.55763899544485
100.55816980664365
100.56034371043472
100.56893623081551
100.60148299125257
100.71854273256486
101.11352629124467
102.34415468449059
105.81251213788197
114.43591171125841
132.85026992829248
165.8918838409196
165.5269720333478
132.47282957005268
114.05006725620856
105.42158220305788
101.95048122558254
100.71854366205739
100.32300002985092
100.2057258185955
100.17310410045707
100.1644875017977
100.16230637379633
100.16177351582377
100.16164718415239
100.16161800327471
100.16161147230257
100.16161032799361
100.16161147230032
100.16161800326361
100.16164718417495
100.16177351593304
100.16230637163645
100.16448750040222
100.17310410493036
100.20572576153327
100.32300006128791
100.71854254566722
101.95047993677089
105.42157209341742
114.05005241405958
132.47281841043537
165.52689313191797
165.41921851533576
132.36136447851334
113.93602267320435
105.30591330806661
101.83389085125269
100.60148393895733
100.20572574889893
100.08836320929062
100.05570850697796
100.04708062190201
100.04489591456307
100.04436199280781
100.04423536193963
100.04420610081489
100.04419954942165
100.0441984011986
100.0441995494192
100.04420610080338
100.04423536196084
100.04436199291125
100.044895912375
100.04708062041304
100.05570851113838
100.08836315118096
100.20572577760667
100.60148281558354
101.83388954911466
105.30590317442129
113.93600779788788
132.361353281151
165.41913957084566
165.38936468984895
132.33047705278685
113.9043972773325
105.2738063116159
101.80149793716484
100.56893716134627
100.17310407866701
100.05570855598747
100.02304066521752
100.0144079604498
100.01222162875119
100.01168719703081
100.01156041556395
100.01153111227036
100.01152454974162
100.0115233993293
100.01152454973914
100.01153111225855
100.0115604155842
100.01168719713061
100.01222162654766
100.01440795891233
100.0230406692303
100.05570849744
100.17310410635841
100.56893603564437
101.80149663097748
105.27379617115417
113.90438239308703
132.33046584563132
165.38928573421896
165.38151241561073
132.3223494354381
113.89606894762083
105.2653435011702
101.79295220119748
100.56034463205604
100.16448746756774
100.04708065923998
100.01440794890739
100.00577336223284
100.00358635456752
100.00305169769794
100.00292484607583
100.00289552217279
100.00288895397158
100.00288780241185
100.00288895396902
100.00289552216087
100.0029248460956
100.00305169779588
100.00358635235628
100.00577336067362
100.01440795285995
100.04708060053305
100.16448749492464
100.56034350565109
101.79295089387467
105.26533335889224
113.89605406109519
132.3223382258555
165.38143345721866
165.37954259385577
132.32030059763983
113.89396706837329
105.26320574059852
101.79079167150117
100.55817072955706
100.16230634038517
100.0448959528731
100.01222161819823
100.00358635555259
100.00139908908758
100.00086434055945
100.00073745869418
100.00070812543125
100.00070155453419
100.00070040241198
100.00070155453162
100.00070812541927
100.00073745871363
100.00086434065648
100.00139908687309
100.00358635398479
100.01222162212923
100.04489589411406
100.16230636764188
100.5581696029552
101.790790363879
105.26319559786029
113.8939521812894
132.32028938748078
165.37946363479466
165.37906098439652
132.31980139051868
113.8934549242482
105.26268451580722
101.79026449254188
100.55763992055552
100.16177348518295
100.04436203328802
100.01168718846628
100.0030517006227
100.00086434248772
100.00032955944262
100.00020266549612
100.0001733282828
100.00016675619135
100.00016560381145
100.00016675618873
100.00017332827065
100.0002026655155
100.00032955953917
100.00086434027206
100.00305169905184
100.01168719239038
100.04436197451344
100.16177351241167
100.55763879390163
101.79026318484445
105.26267437295692
113.8934400370323
132.31979018022585
165.3789820251822
165.37893642148822
132.31968191431213
113.89333358426177
105.2625611858312
101.79013966942702
100.55751414630278
100.16164715550258
100.04423540293891
100.01156040711817
100.00292484902039
100.00073746061945
100.00020266548877
100.00007576705701
100.00004642829228
100.0000398557075
100.00003870321756
100.00003985570486
100.00004642828016
100.00007576707634
100.00020266558512
100.00073745840334
100.00292484744858
100.01156041104016
100.04423534415992
100.16164718272383
100.55751301963573
101.7901383617114
105.26255104295458
113.8933186970158
132.31967070398613
165.37885746224885
165.3789090296879
132.3196539747102
113.89330587504472
105.26253285304857
101.79011090524553
100.55748511911868
100.16161797761747
100.0442061425296
100.01153110397628
100.00289552513749
100.0007081273473
100.00017332825992
100.00004642827568
100.00001708894358
100.00001051616907
100.0000093636352
100.0000105161664
100.00001708893143
100.00004642829502
100.00017332835638
100.00070812513107
100.00289552356533
100.01153110789775
100.04420608374946
100.16161800483681
100.55748399244835
101.79010959752566
105.26252271016583
113.89329098779166
132.31964276437716
165.37883007044317
165.3789068491788
132.31965130434375
113.89330047028731
105.26252672547857
101.79010452258167
100.55747863710742
100.1616114499403
100.04419959189997
100.01152454162686
100.00288895698489
100.00070155647062
100.00016675618292
100.00003985570416
100.00001051618203
100.00000394334087
100.00000279079119
100.00000394333834
100.00001051616991
100.00003985572341
100.00016675627924
100.0007015542543
100.00288895541274
100.01152454554816
100.04419953311961
100.16161147715937
100.55747751043643
101.79010321486085
105.26251658259393
113.89328558303222
132.31964009400807
165.37882788992619
165.37892779593938
132.31965384252345
113.89330027382434
105.26252581425837
101.7901034410668
100.55747750978476
100.16161030797971
100.04419844420055
100.01152339133095
100.00288780545264
100.00070040435698
100.00016560380766
100.00003870321794
100.00000936365178
100.00000279079478
100.00000163824117
100.0000027907922
100.00000936363968
100.00003870323708
100.00016560390391
100.0007004021406
100.00288780388047
100.01152339525223
100.04419838542024
100.16161033519877
100.5574763831136
101.79010213334584
105.26251567137325
113.89328538656832
132.31964263219308
165.3788488366666
165.3789288548857
132.31965493524865
113.89330138707057
105.26252693874795
101.790104573781
100.55747864907059
100.16161145269213
100.04419959251773
100.01152454176327
100.00288895701519
100.00070155647796
100.00016675618535
100.00003985570558
100.00001051618321
100.00000394334198
100.00000279079227
100.0000039433394
100.00001051617107
100.00003985572475
100.00016675628163
100.00070155426152
100.00288895544287
100.01152454568454
100.04419953373747
100.1616114799113
100.55747752239981
101.79010326606044
105.26251679586329
113.89328649981512
132.31964372491893
165.37884989561377
165.37891285842224
132.3196575132973
113.89330679427223
105.26253312642396
101.79011097719179
100.55748513734336
100.16161798200055
100.04420614355008
100.01153110420984
100.00289552519256
100.00070812736293
100.00017332826687
100.00004642828091
100.00001708894825
100.00001051617362
100.00000936363966
100.00001051617093
100.00001708893613
100.00004642830011
100.00017332836325
100.00070812514657
100.00289552362042
100.01153110813138
100.04420608477022
100.16161800922052
100.55748401067407
101.79010966947327
105.2625229835424
113.89329190702071
132.31964630296557
165.37883389917374
165.3789357721404
132.31968154130251
113.89333403807512
105.2625613667395
101.79013973064217
100.55751416361181
100.16164716003028
100.04423540406775
100.01156040740085
100.00292484910084
100.00073746065311
100.00020266551182
100.00007576707775
100.00004642831243
100.00003985572748
100.00003870323745
100.00003985572492
100.00004642830035
100.00007576709702
100.00020266560821
100.00073745843702
100.00292484752912
100.01156041132327
100.04423534528989
100.16164718725372
100.55751303694841
101.79013842293223
105.26255122387055
113.89331915083854
132.31967033098704
165.37885681291436
165.3790513139166
132.31980128334067
113.89345496503424
105.26268460774733
101.79026452977185
100.55763993305726
100.16177348889293
100.0443620343582
100.01168718880878
100.00305170077696
100.00086434259572
100.00032955953957
100.00020266559055
100.00017332837669
100.00016675628504
100.00016560390526
100.00016675628247
100.00017332836455
100.00020266560992
100.00032955963616
100.00086434038008
100.00305169920655
100.01168719273417
100.04436197558712
100.16177351612922
100.55763880641751
101.7902632220976
105.26267446493053
113.8934400778616
132.31979007309374
165.37897235475992
165.37955200360938
132.32030090493794
113.89396725034612
105.2632057859852
101.79079169247356
100.55817073829934
100.16230634405991
100.0448959547134
100.01222161946303
100.00358635665472
100.00139909014719
100.00086434160872
100.0007374597409
100.00070812647745
100.0007015555802
100.00070040345788
100.00070155557766
100.00070812646536
100.00073745976027
100.0008643417056
100.0013990879328
100.00358635508758
100.01222162339741
100.04489589596474
100.16230637134193
100.55816961174924
101.79079038494179
105.26319564338378
113.89395236344374
132.32028969499407
165.3794730447589
165.38151414496778
132.32235068544963
113.89606906414447
105.26534353183457
101.79295221403306
100.56034463726999
100.16448746886412
100.04708065897141
100.01440794812122
100.00577336129696
100.00358635359196
100.00305169671262
100.00292484508807
100.00289552118456
100.00288895298317
100.00288780142336
100.0028889529806
100.0028955211725
100.00292484510756
100.0030516968101
100.00358635138005
100.00577335973777
100.01440795207941
100.0470806002898
100.16448749629652
100.56034351103942
101.79295090704211
105.26533339009053
113.89605417835695
132.32233947674925
165.38143518748547
165.38936403685122
132.33047646167907
113.90439724644483
105.27380636364464
101.80149797418609
100.56893718505529
100.17310409657011
100.0557085719532
100.02304068062361
100.01440797570827
100.01222164397306
100.01168721224384
100.01156043077488
100.01153112748082
100.01152456495205
100.01152341453961
100.01152456494945
100.01153112746881
100.01156043079457
100.0116872123422
100.0122216417661
100.01440797416535
100.02304068463631
100.05570851344817
100.1731041244476
100.56893605987658
101.80149666912361
105.27379622514869
113.90438236506489
132.33046525805557
165.38928508491247
165.41921257175034
132.36136320369818
113.93602282013579
105.30591340346068
101.83389088063782
100.60148393766818
100.20572573807351
100.0883631959293
100.05570849299811
100.0470806077758
100.04489590040244
100.04436197863899
100.0442353477689
100.04420608664371
100.04419953525031
100.04419838702724
100.04419953524778
100.04420608663179
100.04423534778898
100.04436197873875
100.04489589820402
100.04708060626139
100.05570849711597
100.08836313781946
100.20572576709624
100.60148281559685
101.83388958190757
105.3059032765119
113.93600795533341
132.36135201982762
165.41913364156164
165.52696657572488
132.47283247807863
114.05006819590785
105.42158269138349
101.95048154335305
100.7185439348561
100.32300029219499
100.20572607878614
100.17310436021835
100.16448776147233
100.16230663345249
100.16177377547564
100.16164744380323
100.16161826292527
100.16161173195314
100.16161058764409
100.16161173195067
100.16161826291366
100.16164744382364
100.16177377557733
100.16230663126713
100.16448776000138
100.17310436450542
100.20572602140888
100.32300032363199
100.71854282070316
101.95048026313353
105.4215726022327
114.05005338952743
132.4728213671893
165.5268877268037
165.89199347081563
132.85028464291636
114.43592775083967
105.81252261800627
102.34415620680603
101.11352763011169
100.71854293126387
100.60148328204767
100.56893646157192
100.56034394745313
100.55817004453122
100.55763923109767
100.55751345023882
100.5574844116248
100.55747791570391
100.5574767779645
100.55747791570148
100.55748441161323
100.55751345025976
100.55763923120125
100.55817004236489
100.56034394603918
100.5689364660852
100.60148322580167
100.71854296670759
101.11352653204479
102.34415497258126
105.81251263856029
114.43591313436164
132.85027378404186
165.89191490894646
167.0337873044004
134.03064368899751
115.64142614488657
107.032510575142
103.57149406775488
102.34415443654457
101.9504787890558
101.83388851594091
101.80149557976354
101.79294986622334
101.79078933478444
101.79026214797715
101.79013730869845
101.79010850555315
101.79010206606537
101.7901009387016
101.79010206606296
101.79010850554177
101.79013730871965
101.79026214808245
101.79078933264381
101.79294986487469
101.80149558452466
101.83388846116534
101.95047882974245
102.34415336349299
103.57149291837898
107.03250086654158
115.64141207318659
134.03063364076195
167.03370968119924
170.26506963225629
137.36953468279023
119.04790338295142
110.4759347101883
107.03250571730436
105.81251587974246
105.42157505171613
105.30590635845014
105.27379941679487
105.2653366358145
105.26319884505006
105.26267761079716
105.26255427005727
105.26252583172153
105.26251947766997
105.262518365763
105.26251947766755
105.26252583171046
105.26255427007854
105.26267761090342
105.26319884294331
105.26533663453259
105.27379942176975
105.30590630534392
105.42157509764574
105.81251483817
107.03250467418997
110.47592545311608
119.04789068223185
137.36952692887223
170.26499495000593
178.3298997551131
145.69919280369137
127.53723141646799
119.04789241480852
115.64140920844582
114.4359082509096
114.05004836155746
113.93600436140287
113.90437931175025
113.89605096064935
113.89394882737923
113.89343666329722
113.89331554987614
113.89328764211861
113.89328141002325
113.89328031989186
113.89328141002086
113.89328764210768
113.89331554989737
113.89343666340329
113.89394882531661
113.89605095942962
113.90437931685135
113.93600431002677
114.0500484113981
114.43590724225498
115.64140826739991
119.04788358716044
127.53722054239793
145.6991917584943
178.32983287322548
195.60758720226747
163.53665116082217
145.69923017681197
137.36955751199372
134.03065547377278
132.85029321617196
132.4728413054226
132.36137817601298
132.3304923956061
132.32236423016968
132.32031385888612
132.319814574401
132.31969656359507
132.31966938257827
132.31966331511117
132.31966225407288
132.31966331510893
132.31966938256764
132.3196965636159
132.31981457450547
132.32031385688
132.32236422900485
132.33049240071026
132.36137812640703
132.47284135685848
132.85029224138756
134.03065459911667
137.36954908373528
145.69921963598125
163.5366556278183
195.60755895154756
226.68259132057793
195.60753281952242
178.32985036871153
170.26500434246202
167.0337106733047
165.8918775854546
165.52688643685576
165.4191393339055
165.38929202765672
165.38143917866955
165.37945870615093
165.37897653941187
165.3788625949322
165.37883635470197
165.3788304980696
165.3788294740049
165.37883049806752
165.37883635469177
165.3788625949525
165.3789765395132
165.37945870421495
165.38143917755266
165.3892920326299
165.419139286148
165.52688648749555
165.8918766460821
167.03370984576807
170.26499618536346
178.32984071718215
195.60752599583031
226.68257055841454
