# vtk DataFile Version 2.0
Unstructured Grid Example
ASCII
DATASET UNSTRUCTURED_GRID

POINTS 961.0 float
0.100000001 0.00499999989 0
0.0966666639 0.00499999989 0
0.0933333337 0.00499999989 0
0.0900000036 0.00499999989 0
0.086666666 0.00499999989 0
0.0833333358 0.00499999989 0
0.0799999982 0.00499999989 0
0.0766666681 0.00499999989 0
0.0733333305 0.00499999989 0
0.0700000003 0.00499999989 0
0.0666666701 0.00499999989 0
0.0633333325 0.00499999989 0
0.0599999987 0.00499999989 0
0.0566666685 0.00499999989 0
0.0533333346 0.00499999989 0
0.0500000007 0.00499999989 0
0.0466666669 0.00499999989 0
0.043333333 0.00499999989 0
0.0399999991 0.00499999989 0
0.0366666652 0.00499999989 0
0.0333333351 0.00499999989 0
0.0299999993 0.00499999989 0
0.0266666673 0.00499999989 0
0.0233333334 0.00499999989 0
0.0199999996 0.00499999989 0
0.0166666675 0.00499999989 0
0.0133333337 0.00499999989 0
0.00999999978 0.00499999989 0
0.00666666683 0.00499999989 0
0.00333333341 0.00499999989 0
0.0 0.00499999989 0
0.100000001 0.00166666671 0
0.0966666639 0.00166666671 0
0.0933333337 0.00166666671 0
0.0900000036 0.00166666671 0
0.086666666 0.00166666671 0
0.0833333358 0.00166666671 0
0.0799999982 0.00166666671 0
0.0766666681 0.00166666671 0
0.0733333305 0.00166666671 0
0.0700000003 0.00166666671 0
0.0666666701 0.00166666671 0
0.0633333325 0.00166666671 0
0.0599999987 0.00166666671 0
0.0566666685 0.00166666671 0
0.0533333346 0.00166666671 0
0.0500000007 0.00166666671 0
0.0466666669 0.00166666671 0
0.043333333 0.00166666671 0
0.0399999991 0.00166666671 0
0.0366666652 0.00166666671 0
0.0333333351 0.00166666671 0
0.0299999993 0.00166666671 0
0.0266666673 0.00166666671 0
0.0233333334 0.00166666671 0
0.0199999996 0.00166666671 0
0.0166666675 0.00166666671 0
0.0133333337 0.00166666671 0
0.00999999978 0.00166666671 0
0.00666666683 0.00166666671 0
0.00333333341 0.00166666671 0
0.0 0.00166666671 0
0.100000001 -0.00166666671 0
0.0966666639 -0.00166666671 0
0.0933333337 -0.00166666671 0
0.0900000036 -0.00166666671 0
0.086666666 -0.00166666671 0
0.0833333358 -0.00166666671 0
0.0799999982 -0.00166666671 0
0.0766666681 -0.00166666671 0
0.0733333305 -0.00166666671 0
0.0700000003 -0.00166666671 0
0.0666666701 -0.00166666671 0
0.0633333325 -0.00166666671 0
0.0599999987 -0.00166666671 0
0.0566666685 -0.00166666671 0
0.0533333346 -0.00166666671 0
0.0500000007 -0.00166666671 0
0.0466666669 -0.00166666671 0
0.043333333 -0.00166666671 0
0.0399999991 -0.00166666671 0
0.0366666652 -0.00166666671 0
0.0333333351 -0.00166666671 0
0.0299999993 -0.00166666671 0
0.0266666673 -0.00166666671 0
0.0233333334 -0.00166666671 0
0.0199999996 -0.00166666671 0
0.0166666675 -0.00166666671 0
0.0133333337 -0.00166666671 0
0.00999999978 -0.00166666671 0
0.00666666683 -0.00166666671 0
0.00333333341 -0.00166666671 0
0.0 -0.00166666671 0
0.100000001 -0.00499999989 0
0.0966666639 -0.00499999989 0
0.0933333337 -0.00499999989 0
0.0900000036 -0.00499999989 0
0.086666666 -0.00499999989 0
0.0833333358 -0.00499999989 0
0.0799999982 -0.00499999989 0
0.0766666681 -0.00499999989 0
0.0733333305 -0.00499999989 0
0.0700000003 -0.00499999989 0
0.0666666701 -0.00499999989 0
0.0633333325 -0.00499999989 0
0.0599999987 -0.00499999989 0
0.0566666685 -0.00499999989 0
0.0533333346 -0.00499999989 0
0.0500000007 -0.00499999989 0
0.0466666669 -0.00499999989 0
0.043333333 -0.00499999989 0
0.0399999991 -0.00499999989 0
0.0366666652 -0.00499999989 0
0.0333333351 -0.00499999989 0
0.0299999993 -0.00499999989 0
0.0266666673 -0.00499999989 0
0.0233333334 -0.00499999989 0
0.0199999996 -0.00499999989 0
0.0166666675 -0.00499999989 0
0.0133333337 -0.00499999989 0
0.00999999978 -0.00499999989 0
0.00666666683 -0.00499999989 0
0.00333333341 -0.00499999989 0
0.0 -0.00499999989 0
0.100000001 -0.00833333377 0
0.0966666639 -0.00833333377 0
0.0933333337 -0.00833333377 0
0.0900000036 -0.00833333377 0
0.086666666 -0.00833333377 0
0.0833333358 -0.00833333377 0
0.0799999982 -0.00833333377 0
0.0766666681 -0.00833333377 0
0.0733333305 -0.00833333377 0
0.0700000003 -0.00833333377 0
0.0666666701 -0.00833333377 0
0.0633333325 -0.00833333377 0
0.0599999987 -0.00833333377 0
0.0566666685 -0.00833333377 0
0.0533333346 -0.00833333377 0
0.0500000007 -0.00833333377 0
0.0466666669 -0.00833333377 0
0.043333333 -0.00833333377 0
0.0399999991 -0.00833333377 0
0.0366666652 -0.00833333377 0
0.0333333351 -0.00833333377 0
0.0299999993 -0.00833333377 0
0.0266666673 -0.00833333377 0
0.0233333334 -0.00833333377 0
0.0199999996 -0.00833333377 0
0.0166666675 -0.00833333377 0
0.0133333337 -0.00833333377 0
0.00999999978 -0.00833333377 0
0.00666666683 -0.00833333377 0
0.00333333341 -0.00833333377 0
0.0 -0.00833333377 0
0.100000001 -0.0116666667 0
0.0966666639 -0.0116666667 0
0.0933333337 -0.0116666667 0
0.0900000036 -0.0116666667 0
0.086666666 -0.0116666667 0
0.0833333358 -0.0116666667 0
0.0799999982 -0.0116666667 0
0.0766666681 -0.0116666667 0
0.0733333305 -0.0116666667 0
0.0700000003 -0.0116666667 0
0.0666666701 -0.0116666667 0
0.0633333325 -0.0116666667 0
0.0599999987 -0.0116666667 0
0.0566666685 -0.0116666667 0
0.0533333346 -0.0116666667 0
0.0500000007 -0.0116666667 0
0.0466666669 -0.0116666667 0
0.043333333 -0.0116666667 0
0.0399999991 -0.0116666667 0
0.0366666652 -0.0116666667 0
0.0333333351 -0.0116666667 0
0.0299999993 -0.0116666667 0
0.0266666673 -0.0116666667 0
0.0233333334 -0.0116666667 0
0.0199999996 -0.0116666667 0
0.0166666675 -0.0116666667 0
0.0133333337 -0.0116666667 0
0.00999999978 -0.0116666667 0
0.00666666683 -0.0116666667 0
0.00333333341 -0.0116666667 0
0.0 -0.0116666667 0
0.100000001 -0.0149999997 0
0.0966666639 -0.0149999997 0
0.0933333337 -0.0149999997 0
0.0900000036 -0.0149999997 0
0.086666666 -0.0149999997 0
0.0833333358 -0.0149999997 0
0.0799999982 -0.0149999997 0
0.0766666681 -0.0149999997 0
0.0733333305 -0.0149999997 0
0.0700000003 -0.0149999997 0
0.0666666701 -0.0149999997 0
0.0633333325 -0.0149999997 0
0.0599999987 -0.0149999997 0
0.0566666685 -0.0149999997 0
0.0533333346 -0.0149999997 0
0.0500000007 -0.0149999997 0
0.0466666669 -0.0149999997 0
0.043333333 -0.0149999997 0
0.0399999991 -0.0149999997 0
0.0366666652 -0.0149999997 0
0.0333333351 -0.0149999997 0
0.0299999993 -0.0149999997 0
0.0266666673 -0.0149999997 0
0.0233333334 -0.0149999997 0
0.0199999996 -0.0149999997 0
0.0166666675 -0.0149999997 0
0.0133333337 -0.0149999997 0
0.00999999978 -0.0149999997 0
0.00666666683 -0.0149999997 0
0.00333333341 -0.0149999997 0
0.0 -0.0149999997 0
0.100000001 -0.0183333326 0
0.0966666639 -0.0183333326 0
0.0933333337 -0.0183333326 0
0.0900000036 -0.0183333326 0
0.086666666 -0.0183333326 0
0.0833333358 -0.0183333326 0
0.0799999982 -0.0183333326 0
0.0766666681 -0.0183333326 0
0.0733333305 -0.0183333326 0
0.0700000003 -0.0183333326 0
0.0666666701 -0.0183333326 0
0.0633333325 -0.0183333326 0
0.0599999987 -0.0183333326 0
0.0566666685 -0.0183333326 0
0.0533333346 -0.0183333326 0
0.0500000007 -0.0183333326 0
0.0466666669 -0.0183333326 0
0.043333333 -0.0183333326 0
0.0399999991 -0.0183333326 0
0.0366666652 -0.0183333326 0
0.0333333351 -0.0183333326 0
0.0299999993 -0.0183333326 0
0.0266666673 -0.0183333326 0
0.0233333334 -0.0183333326 0
0.0199999996 -0.0183333326 0
0.0166666675 -0.0183333326 0
0.0133333337 -0.0183333326 0
0.00999999978 -0.0183333326 0
0.00666666683 -0.0183333326 0
0.00333333341 -0.0183333326 0
0.0 -0.0183333326 0
0.100000001 -0.0216666665 0
0.0966666639 -0.0216666665 0
0.0933333337 -0.0216666665 0
0.0900000036 -0.0216666665 0
0.086666666 -0.0216666665 0
0.0833333358 -0.0216666665 0
0.0799999982 -0.0216666665 0
0.0766666681 -0.0216666665 0
0.0733333305 -0.0216666665 0
0.0700000003 -0.0216666665 0
0.0666666701 -0.0216666665 0
0.0633333325 -0.0216666665 0
0.0599999987 -0.0216666665 0
0.0566666685 -0.0216666665 0
0.0533333346 -0.0216666665 0
0.0500000007 -0.0216666665 0
0.0466666669 -0.0216666665 0
0.043333333 -0.0216666665 0
0.0399999991 -0.0216666665 0
0.0366666652 -0.0216666665 0
0.0333333351 -0.0216666665 0
0.0299999993 -0.0216666665 0
0.0266666673 -0.0216666665 0
0.0233333334 -0.0216666665 0
0.0199999996 -0.0216666665 0
0.0166666675 -0.0216666665 0
0.0133333337 -0.0216666665 0
0.00999999978 -0.0216666665 0
0.00666666683 -0.0216666665 0
0.00333333341 -0.0216666665 0
0.0 -0.0216666665 0
0.100000001 -0.0250000004 0
0.0966666639 -0.0250000004 0
0.0933333337 -0.0250000004 0
0.0900000036 -0.0250000004 0
0.086666666 -0.0250000004 0
0.0833333358 -0.0250000004 0
0.0799999982 -0.0250000004 0
0.0766666681 -0.0250000004 0
0.0733333305 -0.0250000004 0
0.0700000003 -0.0250000004 0
0.0666666701 -0.0250000004 0
0.0633333325 -0.0250000004 0
0.0599999987 -0.0250000004 0
0.0566666685 -0.0250000004 0
0.0533333346 -0.0250000004 0
0.0500000007 -0.0250000004 0
0.0466666669 -0.0250000004 0
0.043333333 -0.0250000004 0
0.0399999991 -0.0250000004 0
0.0366666652 -0.0250000004 0
0.0333333351 -0.0250000004 0
0.0299999993 -0.0250000004 0
0.0266666673 -0.0250000004 0
0.0233333334 -0.0250000004 0
0.0199999996 -0.0250000004 0
0.0166666675 -0.0250000004 0
0.0133333337 -0.0250000004 0
0.00999999978 -0.0250000004 0
0.00666666683 -0.0250000004 0
0.00333333341 -0.0250000004 0
0.0 -0.0250000004 0
0.100000001 -0.0283333343 0
0.0966666639 -0.0283333343 0
0.0933333337 -0.0283333343 0
0.0900000036 -0.0283333343 0
0.086666666 -0.0283333343 0
0.0833333358 -0.0283333343 0
0.0799999982 -0.0283333343 0
0.0766666681 -0.0283333343 0
0.0733333305 -0.0283333343 0
0.0700000003 -0.0283333343 0
0.0666666701 -0.0283333343 0
0.0633333325 -0.0283333343 0
0.0599999987 -0.0283333343 0
0.0566666685 -0.0283333343 0
0.0533333346 -0.0283333343 0
0.0500000007 -0.0283333343 0
0.0466666669 -0.0283333343 0
0.043333333 -0.0283333343 0
0.0399999991 -0.0283333343 0
0.0366666652 -0.0283333343 0
0.0333333351 -0.0283333343 0
0.0299999993 -0.0283333343 0
0.0266666673 -0.0283333343 0
0.0233333334 -0.0283333343 0
0.0199999996 -0.0283333343 0
0.0166666675 -0.0283333343 0
0.0133333337 -0.0283333343 0
0.00999999978 -0.0283333343 0
0.00666666683 -0.0283333343 0
0.00333333341 -0.0283333343 0
0.0 -0.0283333343 0
[...]
POINT_DATA 961.0
SCALARS Temp float 1
LOOKUP_TABLE default
226.6826027028881
195.60752864870693
178.32985173928992
170.26500482155032
167.03371090714384
165.89187775122198
165.52688659192378
165.4191394885006
165.38929218276962
165.38143933405664
165.37945886163544
165.37897669492563
165.37886275045403
165.37883651022582
165.37883065359404
165.37882962952958
165.37883065359247
165.37883651021886
165.3788627504891
165.37897669509252
165.37945885998133
165.3814393341159
165.38929219247794
165.41913945901297
165.5268867094507
165.89187704254616
167.03371081304243
170.26499890053697
178.32984781444492
195.60755243112948
226.6825845922806
195.60760760817553
163.53663668966095
145.69920870346152
137.36953491877748
134.03063245349117
132.85027009753375
132.4728181666022
132.36135503419604
132.33046925359707
132.32234108824616
132.32029071701137
132.31979143254338
132.31967342174246
132.3196462407271
132.3196401732605
132.31963911222226
132.31964017325888
132.31964624071972
132.31967342177822
132.31979143271315
132.32029071528459
132.32234108824065
132.33046926333478
132.36135500228733
132.47281828204916
132.85026933839157
134.03063225237662
137.36952832849948
145.69920336890016
163.53664404017687
195.60755706195712
178.32991499698875
145.6992058018674
127.53723864932006
119.04789800311154
115.64141450544838
114.43591349763143
114.05005360617261
113.93600960823429
113.90438455981231
113.89605620916046
113.8939540760289
113.89344191198549
113.89332079857442
113.89329289081954
113.89328665872479
113.89328556859358
113.89328665872304
113.89329289081165
113.89332079860958
113.89344191215152
113.89395407421961
113.89605620897449
113.90438456896102
113.93600957191771
114.05005370847185
114.43591265733816
115.64141404113238
119.04789035712648
127.53722932612573
145.69920471035
178.3298529878209
170.26506975163167
137.36953336049567
119.04790107209045
110.47593204631474
107.03250296640398
105.81251313160676
105.42157231085298
105.30590362138591
105.27379668113372
105.2653339005988
105.26319610996234
105.26267487574388
105.26255153501269
105.26252309667915
105.262516742628
105.26251563072118
105.26251674262618
105.2625230966707
105.26255153504607
105.26267487590168
105.26319610806897
105.2653339001675
105.27379668934725
105.30590357990624
105.4215723955381
105.81251220666356
107.03250223291596
110.47592343419448
119.047889553794
137.36952879683096
170.2650032498495
167.033783642
134.03063894165197
115.6414260715152
107.0325117646252
103.57149562821719
102.344156100579
101.95048048379032
101.83389021958556
101.80149728593969
101.79295157309127
101.79079104183447
101.79026385507343
101.79013901580612
101.79011021266352
101.7901037731763
101.79010264581274
101.79010377317431
101.79011021265447
101.79013901583733
101.79026385522099
101.79079103986525
101.79295157241097
101.80149729318354
101.83389017349833
101.9504805527149
102.3441551119808
103.57149470767747
107.03250265533481
115.64141363940351
134.03063310330623
167.03371553338576
165.89195017945335
132.85027622140464
114.4359247854902
105.81252171465918
102.34415589832521
101.11352748768357
100.71854283294536
100.60148319531727
100.56893637783016
100.5603438644691
100.5581699617353
100.55763914834745
100.55751336749954
100.55748432888795
100.55747783296772
100.55747669522847
100.55747783296569
100.55748432887827
100.55751336752851
100.5576391484852
100.55816995970551
100.56034386358246
100.56893638429185
100.60148314591972
100.71854289125216
101.113526462217
102.3441548877168
105.81251240496557
114.43591202847708
132.8502699633934
165.8918815468245
165.52695973589584
132.4728250136571
114.05006565636245
105.4215816875632
101.95048108739311
100.71854364614553
100.32300005076982
100.20572584992176
100.17310413456904
100.16448753662242
100.1623064087967
100.16177355086616
100.16164721920457
100.1616180383292
100.16161150735762
100.16161036304867
100.16161150735543
100.16161803831903
100.16164721923182
100.16177355099593
100.16230640672448
100.16448753559153
100.17310414051369
100.20572579857495
100.32300010340447
100.71854260407451
101.95048004173432
105.42157230858089
114.05005279617008
132.47281862906553
165.52689094580506
165.41921252269316
132.36136176189257
113.93602154226424
105.30591288615926
101.83389071279534
100.6014839000203
100.2057257414931
100.08836321108585
100.05570851129134
100.04708062687075
100.04489591969558
100.04436199797988
100.04423536712108
100.04420610599854
100.04419955460573
100.04419840638276
100.04419955460347
100.04420610598794
100.0442353671469
100.04436199810425
100.04489591759695
100.04708062575382
100.05570851695035
100.08836315878278
100.20572579167434
100.60148285168323
101.83388965531881
105.30590348567408
113.93600865195688
132.36135534170936
165.41914368834796
165.38936525737608
132.33047602137714
113.90439653627277
105.27380599045566
101.80149782471263
100.56893712911662
100.1731040730231
100.05570855833301
100.02304066980192
100.01440796562912
100.01222163408193
100.01168720239878
100.01156042094082
100.0115311176494
100.0115245551211
100.01152340470877
100.01152455511885
100.01153111763854
100.01156042096585
100.0116872025198
100.01222163196887
100.01440796446776
100.02304067532702
100.0557085056339
100.17310412229908
100.56893607869905
101.80149676364023
105.27379658381138
113.90438363773072
132.33046959173214
165.38929641125236
165.381512394304
132.32234784068103
113.89606817022423
105.26534319463683
101.7929520965846
100.56034460063867
100.16448745999996
100.04708065887539
100.01440795059024
100.0057733644693
100.00358635694722
100.00305170011355
100.00292484850004
100.002895524599
100.00288895639824
100.00288780483862
100.0028889563959
100.00289552458813
100.00292484852466
100.00305170023276
100.00358635482719
100.00577336328814
100.01440795606129
100.04708060603322
100.16448750897952
100.56034354959289
101.79295103449864
105.26533378633407
113.89605526954361
132.32234140863227
165.381443545182
165.37953192106198
132.32029746846865
113.89396603616059
105.26320540313272
101.7907915644802
100.55817069711557
100.16230633140587
100.04489595095086
100.01222161829747
100.00358635620353
100.00139908988268
100.00086434139084
100.00073745953434
100.00070812627358
100.00070155537696
100.00070040325484
100.00070155537452
100.00070812626255
100.00073745955869
100.00086434150927
100.0013990877596
100.0035863550147
100.01222162374926
100.04489589806226
100.16230638029676
100.55816964589341
101.79079050212506
105.26319599440468
113.89395313494728
132.32029103583164
165.37946307120455
165.37904975536043
132.31979818501222
113.89345387316989
105.26268417000274
101.79026437882493
100.5576398848567
100.16177347461455
100.04436203038284
100.01168718776465
100.00305170052184
100.00086434254314
100.00032955953715
100.00020266560024
100.00017332838917
100.00016675629819
100.00016560391842
100.00016675629573
100.00017332837814
100.00020266562449
100.00032955965531
100.00086434041899
100.00305169933016
100.01168719321022
100.0443619774803
100.1617735234807
100.55763883358772
101.79026331640156
105.2626747611698
113.89344097182831
132.3197917522357
165.37898090532795
165.37893581080277
132.31968017411447
113.89333275966271
105.26256082917763
101.79013953946348
100.55751410391757
100.16164714286303
100.04423539943565
100.01156040621872
100.00292484882078
100.00073746059923
100.0002026655128
100.0000757670917
100.00004642832945
100.0000398557452
100.0000387032553
100.00003985574274
100.00004642831843
100.00007576711589
100.00020266563074
100.00073745847472
100.00292484762831
100.01156041166253
100.04423534652923
100.16164719172257
100.55751305263668
101.79013847702343
105.26255142031967
113.89331985829118
132.31967374130562
165.3788669607298
165.3789095705327
132.3196529930538
113.89330485186194
105.26253239079817
101.79011073627451
100.55748506526022
100.16161796194186
100.04420613826768
100.01153110288199
100.00289552487462
100.00070812729335
100.00017332825654
100.00004642828428
100.00001708895482
100.00001051618085
100.0000093636471
100.00001051617846
100.00001708894376
100.00004642830841
100.00017332837444
100.00070812516856
100.00289552368189
100.01153110832524
100.04420608536026
100.16161801079987
100.55748401397639
101.79010967383053
105.26252298193441
113.89329195048357
132.3196465602377
165.3788407204505
165.378903713904
132.31964692558986
113.89329861977014
105.26252603675016
101.7901042967905
100.55747856934335
100.16161143097376
100.04419958687839
100.01152454035744
100.00288895667755
100.00070155640044
100.00016675616935
100.00003985570378
100.00001051618457
100.00000394334413
100.00000279079457
100.00000394334171
100.00001051617357
100.00003985572789
100.00016675628716
100.00070155427572
100.0028889554848
100.01152454580055
100.0441995339708
100.16161147983134
100.55747751805892
101.79010323434565
105.26251662788518
113.89328571839026
132.31964049277227
165.37883486381978
165.37890268983995
132.31964586455206
113.89329752963933
105.26252492484382
101.79010316942748
100.55747743160471
100.16161028666544
100.04419843865617
100.01152338994582
100.00288780511862
100.00070040427906
100.00016560379025
100.0000387032146
100.00000936365151
100.00000279079526
100.00000163824184
100.00000279079286
100.00000936364053
100.00003870323874
100.00016560390807
100.00070040215427
100.00288780392574
100.0115233953889
100.04419838574844
100.16161033552302
100.55747638032017
101.7901021069825
105.26251551597865
113.89328462825927
132.31963943173423
165.3788338397555
165.37890371390367
132.31964692558967
113.89329861976991
105.26252603674993
101.79010429679035
100.5574785693432
100.16161143097366
100.04419958687839
100.01152454035743
100.00288895667757
100.00070155640044
100.00016675616935
100.00003985570379
100.00001051618455
100.00000394334408
100.00000279079457
100.00000394334174
100.00001051617357
100.00003985572792
100.0001667562872
100.00070155427572
100.00288895548474
100.01152454580053
100.04419953397078
100.16161147983131
100.5574775180589
101.79010323434564
105.26251662788516
113.89328571839022
132.31964049277224
165.3788348638198
165.37890957053133
132.31965299305253
113.89330485186079
105.26253239079723
101.79011073627382
100.55748506525971
100.16161796194156
100.04420613826747
100.01153110288195
100.00289552487459
100.00070812729334
100.00017332825655
100.00004642828428
100.00001708895483
100.00001051618084
100.00000936364708
100.00001051617839
100.00001708894382
100.00004642830837
100.00017332837449
100.0007081251686
100.0028955236819
100.01153110832526
100.04420608536024
100.16161801079981
100.5574840139764
101.79010967383053
105.26252298193445
113.89329195048349
132.31964656023771
165.3788407204505
165.3789358107968
132.31968017410856
113.89333275965753
105.26256082917347
101.79013953946048
100.5575141039156
100.16164714286187
100.04423539943511
100.01156040621854
100.00292484882077
100.00073746059928
100.00020266551283
100.00007576709174
100.00004642832941
100.00003985574514
100.00003870325524
100.00003985574277
100.00004642831843
100.00007576711589
100.00020266563078
100.00073745847476
100.00292484762832
100.01156041166256
100.04423534652919
100.1616471917226
100.55751305263671
101.79013847702349
105.26255142031968
113.89331985829114
132.31967374130556
165.3788669607298
165.37904975533385
132.31979818498615
113.89345387314717
105.26268416998512
101.79026437881276
100.55763988484917
100.16177347461051
100.044362030381
100.011687187764
100.00305170052161
100.00086434254318
100.00032955953716
100.00020266560023
100.00017332838908
100.00016675629813
100.0001656039184
100.00016675629583
100.00017332837814
100.00020266562446
100.00032955965536
100.00086434041903
100.00305169933021
100.01168719321018
100.04436197748028
100.16177352348068
100.55763883358767
101.7902633164016
105.26267476116982
113.89344097182826
132.31979175223563
165.37898090532804
165.37953192094756
132.32029746835707
113.89396603606504
105.26320540306071
101.79079156443268
100.5581706970883
100.16230633139247
100.04489595094549
100.01222161829575
100.00358635620327
100.00139908988277
100.00086434139098
100.00073745953445
100.00070812627352
100.00070155537696
100.00070040325481
100.00070155537462
100.00070812626261
100.00073745955866
100.00086434150928
100.0013990877597
100.00358635501469
100.01222162374924
100.04489589806226
100.16230638029677
100.55816964589344
101.79079050212505
105.26319599440463
113.8939531349473
132.32029103583167
165.37946307120453
165.38151239382444
132.32234784021745
113.89606816983644
105.26534319435633
101.79295209641027
100.56034460054701
100.16448745996023
100.04708065886207
100.01440795058734
100.00577336446935
100.00358635694768
100.00305170011382
100.0029248485002
100.0028955245991
100.0028889563983
100.00288780483866
100.00288895639592
100.00289552458815
100.0029248485246
100.00305170023282
100.0035863548272
100.0057733632882
100.0144079560613
100.04708060603323
100.16448750897958
100.56034354959296
101.79295103449864
105.26533378633412
113.8960552695436
132.32234140863227
165.3814435451821
165.38936525543892
132.3304760195228
113.90439653476847
105.27380598942376
101.80149782412224
100.56893712884204
100.17310407292544
100.05570855831067
100.02304066980193
100.01440796563206
100.01222163408384
100.01168720239961
100.01156042094115
100.01153111764953
100.01152455512118
100.01152340470883
100.01152455511881
100.01153111763861
100.01156042096594
100.01168720251994
100.01222163196904
100.01440796446778
100.02304067532705
100.05570850563397
100.1731041222992
100.56893607869907
101.80149676364023
105.27379658381139
113.90438363773066
132.33046959173205
165.38929641125233
165.4192125151962
132.3613617548159
113.93602153675035
105.30591288264752
101.83389071100841
100.6014838993374
100.20572574132801
100.08836321108582
100.05570851131368
100.0470806268841
100.04489591970109
100.04436199798184
100.04423536712166
100.04420610599871
100.04419955460577
100.04419840638279
100.0441995546035
100.04420610598805
100.04423536714704
100.04436199810426
100.04489591759692
100.04708062575382
100.0557085169504
100.08836315878284
100.20572579167444
100.60148285168333
101.83388965531887
105.30590348567404
113.93600865195684
132.36135534170938
165.4191436883478
165.52695970839554
132.47282498813544
114.05006563762964
105.42158167683358
101.95048108289373
100.71854364497423
100.32300005076983
100.2057258500871
100.17310413466674
100.16448753666215
100.16230640881022
100.16177355087022
100.16164721920578
100.16161803832952
100.16161150735768
100.16161036304885
100.16161150735549
100.161618038319
100.16164721923182
100.16177355099596
100.16230640672453
100.16448753559159
100.17310414051377
100.20572579857506
100.3230001034046
100.71854260407454
101.95048004173431
105.42157230858093
114.05005279616998
132.4728186290654
165.526890945805
165.89195008444455
132.8502761360409
114.43592472780321
105.81252168723766
102.34415589039807
101.11352748768346
100.71854283411676
100.60148319600034
100.56893637810477
100.5603438645608
100.55816996176267
100.55763914835507
100.55751336750154
100.5574843288885
100.55747783296788
100.5574766952286
100.55747783296565
100.55748432887833
100.55751336752861
100.55763914848514
100.55816995970552
100.56034386358242
100.56893638429183
100.60148314591984
100.71854289125224
101.11352646221701
102.34415488771673
105.81251240496543
114.43591202847702
132.85026996339343
165.8918815468245
167.03378334005126
134.03063867756336
115.64142592125502
107.03251171348644
103.57149562821726
102.34415610850611
101.95048048828987
101.83389022137261
101.80149728653026
101.79295157326573
101.79079104188209
101.7902638550857
101.79013901580923
101.79011021266425
101.7901037731765
101.7901026458129
101.79010377317434
101.79011021265445
101.79013901583735
101.79026385522097
101.79079103986516
101.79295157241091
101.80149729318357
101.8338901734984
101.95048055271485
102.34415511198078
103.5714947076774
107.03250265533477
115.64141363940332
134.0306331033062
167.03371553338584
170.2650688208212
137.3695326583368
119.047900753066
110.47593204631485
107.03250301754291
105.81251315902831
105.42157232158274
105.30590362489775
105.27379668216581
105.26533390087955
105.26319611003443
105.26267487576158
105.26255153501688
105.26252309668014
105.26251674262828
105.26251563072135
105.26251674262622
105.26252309667068
105.26255153504601
105.26267487590171
105.2631961080689
105.26533390016742
105.27379668934718
105.30590357990629
105.42157239553816
105.81251220666351
107.03250223291589
110.47592343419434
119.04788955379387
137.369528796831
170.2650032498496
178.32991261371168
145.699203775501
127.53723864932056
119.04789832213686
115.6414146557089
114.4359135553188
114.0500536249055
113.93600961374841
113.9043845613168
113.89605620954835
113.8939540761245
113.89344191200826
113.89332079857977
113.89329289082072
113.89328665872502
113.89328556859367
113.89328665872313
113.89329289081168
113.89332079860954
113.8934419121516
113.89395407421965
113.8960562089744
113.90438456896109
113.93600957191771
114.05005370847195
114.43591265733818
115.6414140411324
119.04789035712652
127.53722932612575
145.69920471035002
178.32985298782094
195.60759316595968
163.5366366896676
145.69921072983206
137.36953562093885
134.03063271758037
132.85027018289793
132.47281819212398
132.36135504127276
132.33046925545136
132.32234108870975
132.32029071712302
132.3197914325694
132.31967342174855
132.3196462407285
132.3196401732609
132.31963911222246
132.3196401732588
132.3196462407198
132.31967342177825
132.31979143271326
132.32029071528476
132.32234108824068
132.3304692633349
132.3613550022874
132.4728182820493
132.85026933839163
134.0306322523767
137.36952832849957
145.69920336890016
163.53664404017698
195.6075570619572
226.68260270286774
195.60754309092408
178.3298541225716
170.26500575236346
167.03371120909296
165.89187784623115
165.5268866194242
165.41913949599748
165.38929218470685
165.38143933453608
165.37945886175
165.37897669495237
165.37886275046
165.37883651022722
165.37883065359446
165.37882962952963
165.37883065359262
165.37883651021886
165.37886275048916
165.3789766950925
165.37945885998144
165.381439334116
165.38929219247797
165.41913945901314
165.5268867094508
165.89187704254624
167.03371081304243
170.26499890053697
178.3298478144449
195.60755243112965
226.68258459228062
