# vtk DataFile Version 2.0
Unstructured Grid Example
ASCII
DATASET UNSTRUCTURED_GRID

POINTS 961 float
0.100000001 0.00499999989 0
0.0966666639 0.00499999989 0
0.0933333337 0.00499999989 0
0.0900000036 0.00499999989 0
0.086666666 0.00499999989 0
0.0833333358 0.00499999989 0
0.0799999982 0.00499999989 0
0.0766666681 0.00499999989 0
0.0733333305 0.00499999989 0
0.0700000003 0.00499999989 0
0.0666666701 0.00499999989 0
0.0633333325 0.00499999989 0
0.0599999987 0.00499999989 0
0.0566666685 0.00499999989 0
0.0533333346 0.00499999989 0
0.0500000007 0.00499999989 0
0.0466666669 0.00499999989 0
0.043333333 0.00499999989 0
0.0399999991 0.00499999989 0
0.0366666652 0.00499999989 0
0.0333333351 0.00499999989 0
0.0299999993 0.00499999989 0
0.0266666673 0.00499999989 0
0.0233333334 0.00499999989 0
0.0199999996 0.00499999989 0
0.0166666675 0.00499999989 0
0.0133333337 0.00499999989 0
0.00999999978 0.00499999989 0
0.00666666683 0.00499999989 0
0.00333333341 0.00499999989 0
0 0.00499999989 0
0.100000001 0.00166666671 0
0.0966666639 0.00166666671 0
0.0933333337 0.00166666671 0
0.0900000036 0.00166666671 0
0.086666666 0.00166666671 0
0.0833333358 0.00166666671 0
0.0799999982 0.00166666671 0
0.0766666681 0.00166666671 0
0.0733333305 0.00166666671 0
0.0700000003 0.00166666671 0
0.0666666701 0.00166666671 0
0.0633333325 0.00166666671 0
0.0599999987 0.00166666671 0
0.0566666685 0.00166666671 0
0.0533333346 0.00166666671 0
0.0500000007 0.00166666671 0
0.0466666669 0.00166666671 0
0.043333333 0.00166666671 0
0.0399999991 0.00166666671 0
0.0366666652 0.00166666671 0
0.0333333351 0.00166666671 0
0.0299999993 0.00166666671 0
0.0266666673 0.00166666671 0
0.0233333334 0.00166666671 0
0.0199999996 0.00166666671 0
0.0166666675 0.00166666671 0
0.0133333337 0.00166666671 0
0.00999999978 0.00166666671 0
0.00666666683 0.00166666671 0
0.00333333341 0.00166666671 0
0 0.00166666671 0
0.100000001 -0.00166666671 0
0.0966666639 -0.00166666671 0
0.0933333337 -0.00166666671 0
0.0900000036 -0.00166666671 0
0.086666666 -0.00166666671 0
0.0833333358 -0.00166666671 0
0.0799999982 -0.00166666671 0
0.0766666681 -0.00166666671 0
0.0733333305 -0.00166666671 0
0.0700000003 -0.00166666671 0
0.0666666701 -0.00166666671 0
0.0633333325 -0.00166666671 0
0.0599999987 -0.00166666671 0
0.0566666685 -0.00166666671 0
0.0533333346 -0.00166666671 0
0.0500000007 -0.00166666671 0
0.0466666669 -0.00166666671 0
0.043333333 -0.00166666671 0
0.0399999991 -0.00166666671 0
0.0366666652 -0.00166666671 0
0.0333333351 -0.00166666671 0
0.0299999993 -0.00166666671 0
0.0266666673 -0.00166666671 0
0.0233333334 -0.00166666671 0
0.0199999996 -0.00166666671 0
0.0166666675 -0.00166666671 0
0.0133333337 -0.00166666671 0
0.00999999978 -0.00166666671 0
0.00666666683 -0.00166666671 0
0.00333333341 -0.00166666671 0
0 -0.00166666671 0
0.100000001 -0.00499999989 0
0.0966666639 -0.00499999989 0
0.0933333337 -0.00499999989 0
0.0900000036 -0.00499999989 0
0.086666666 -0.00499999989 0
0.0833333358 -0.00499999989 0
0.0799999982 -0.00499999989 0
0.0766666681 -0.00499999989 0
0.0733333305 -0.00499999989 0
0.0700000003 -0.00499999989 0
0.0666666701 -0.00499999989 0
0.0633333325 -0.00499999989 0
0.0599999987 -0.00499999989 0
0.0566666685 -0.00499999989 0
0.0533333346 -0.00499999989 0
0.0500000007 -0.00499999989 0
0.0466666669 -0.00499999989 0
0.043333333 -0.00499999989 0
0.0399999991 -0.00499999989 0
0.0366666652 -0.00499999989 0
0.0333333351 -0.00499999989 0
0.0299999993 -0.00499999989 0
0.0266666673 -0.00499999989 0
0.0233333334 -0.00499999989 0
0.0199999996 -0.00499999989 0
0.0166666675 -0.00499999989 0
0.0133333337 -0.00499999989 0
0.00999999978 -0.00499999989 0
0.00666666683 -0.00499999989 0
0.00333333341 -0.00499999989 0
0 -0.00499999989 0
0.100000001 -0.00833333377 0
0.0966666639 -0.00833333377 0
0.0933333337 -0.00833333377 0
0.0900000036 -0.00833333377 0
0.086666666 -0.00833333377 0
0.0833333358 -0.00833333377 0
0.0799999982 -0.00833333377 0
0.0766666681 -0.00833333377 0
0.0733333305 -0.00833333377 0
0.0700000003 -0.00833333377 0
0.0666666701 -0.00833333377 0
0.0633333325 -0.00833333377 0
0.0599999987 -0.00833333377 0
0.0566666685 -0.00833333377 0
0.0533333346 -0.00833333377 0
0.0500000007 -0.00833333377 0
0.0466666669 -0.00833333377 0
0.043333333 -0.00833333377 0
0.0399999991 -0.00833333377 0
0.0366666652 -0.00833333377 0
0.0333333351 -0.00833333377 0
0.0299999993 -0.00833333377 0
0.0266666673 -0.00833333377 0
0.0233333334 -0.00833333377 0
0.0199999996 -0.00833333377 0
0.0166666675 -0.00833333377 0
0.0133333337 -0.00833333377 0
0.00999999978 -0.00833333377 0
0.00666666683 -0.00833333377 0
0.00333333341 -0.00833333377 0
0 -0.00833333377 0
0.100000001 -0.0116666667 0
0.0966666639 -0.0116666667 0
0.0933333337 -0.0116666667 0
0.0900000036 -0.0116666667 0
0.086666666 -0.0116666667 0
0.0833333358 -0.0116666667 0
0.0799999982 -0.0116666667 0
0.0766666681 -0.0116666667 0
0.0733333305 -0.0116666667 0
0.0700000003 -0.0116666667 0
0.0666666701 -0.0116666667 0
0.0633333325 -0.0116666667 0
0.0599999987 -0.0116666667 0
0.0566666685 -0.0116666667 0
0.0533333346 -0.0116666667 0
0.0500000007 -0.0116666667 0
0.0466666669 -0.0116666667 0
0.043333333 -0.0116666667 0
0.0399999991 -0.0116666667 0
0.0366666652 -0.0116666667 0
0.0333333351 -0.0116666667 0
0.0299999993 -0.0116666667 0
0.0266666673 -0.0116666667 0
0.0233333334 -0.0116666667 0
0.0199999996 -0.0116666667 0
0.0166666675 -0.0116666667 0
0.0133333337 -0.0116666667 0
0.00999999978 -0.0116666667 0
0.00666666683 -0.0116666667 0
0.00333333341 -0.0116666667 0
0 -0.0116666667 0
0.100000001 -0.0149999997 0
0.0966666639 -0.0149999997 0
0.0933333337 -0.0149999997 0
0.0900000036 -0.0149999997 0
0.086666666 -0.0149999997 0
0.0833333358 -0.0149999997 0
0.0799999982 -0.0149999997 0
0.0766666681 -0.0149999997 0
0.0733333305 -0.0149999997 0
0.0700000003 -0.0149999997 0
0.0666666701 -0.0149999997 0
0.0633333325 -0.0149999997 0
0.0599999987 -0.0149999997 0
0.0566666685 -0.0149999997 0
0.0533333346 -0.0149999997 0
0.0500000007 -0.0149999997 0
0.0466666669 -0.0149999997 0
0.043333333 -0.0149999997 0
0.0399999991 -0.0149999997 0
0.0366666652 -0.0149999997 0
0.0333333351 -0.0149999997 0
0.0299999993 -0.0149999997 0
0.0266666673 -0.0149999997 0
0.0233333334 -0.0149999997 0
0.0199999996 -0.0149999997 0
0.0166666675 -0.0149999997 0
0.0133333337 -0.0149999997 0
0.00999999978 -0.0149999997 0
0.00666666683 -0.0149999997 0
0.00333333341 -0.0149999997 0
0 -0.0149999997 0
0.100000001 -0.0183333326 0
0.0966666639 -0.0183333326 0
0.0933333337 -0.0183333326 0
0.0900000036 -0.0183333326 0
0.086666666 -0.0183333326 0
0.0833333358 -0.0183333326 0
0.0799999982 -0.0183333326 0
0.0766666681 -0.0183333326 0
0.0733333305 -0.0183333326 0
0.0700000003 -0.0183333326 0
0.0666666701 -0.0183333326 0
0.0633333325 -0.0183333326 0
0.0599999987 -0.0183333326 0
0.0566666685 -0.0183333326 0
0.0533333346 -0.0183333326 0
0.0500000007 -0.0183333326 0
0.0466666669 -0.0183333326 0
0.043333333 -0.0183333326 0
0.0399999991 -0.0183333326 0
0.0366666652 -0.0183333326 0
0.0333333351 -0.0183333326 0
0.0299999993 -0.0183333326 0
0.0266666673 -0.0183333326 0
0.0233333334 -0.0183333326 0
0.0199999996 -0.0183333326 0
0.0166666675 -0.0183333326 0
0.0133333337 -0.0183333326 0
0.00999999978 -0.0183333326 0
0.00666666683 -0.0183333326 0
0.00333333341 -0.0183333326 0
0 -0.0183333326 0
0.100000001 -0.0216666665 0
0.0966666639 -0.0216666665 0
0.0933333337 -0.0216666665 0
0.0900000036 -0.0216666665 0
0.086666666 -0.0216666665 0
0.0833333358 -0.0216666665 0
0.0799999982 -0.0216666665 0
0.0766666681 -0.0216666665 0
0.0733333305 -0.0216666665 0
0.0700000003 -0.0216666665 0
0.0666666701 -0.0216666665 0
0.0633333325 -0.0216666665 0
0.0599999987 -0.0216666665 0
0.0566666685 -0.0216666665 0
0.0533333346 -0.0216666665 0
0.0500000007 -0.0216666665 0
0.0466666669 -0.0216666665 0
0.043333333 -0.0216666665 0
0.0399999991 -0.0216666665 0
0.0366666652 -0.0216666665 0
0.0333333351 -0.0216666665 0
0.0299999993 -0.0216666665 0
0.0266666673 -0.0216666665 0
0.0233333334 -0.0216666665 0
0.0199999996 -0.0216666665 0
0.0166666675 -0.0216666665 0
0.0133333337 -0.0216666665 0
0.00999999978 -0.0216666665 0
0.00666666683 -0.0216666665 0
0.00333333341 -0.0216666665 0
0 -0.0216666665 0
0.100000001 -0.0250000004 0
0.0966666639 -0.0250000004 0
0.0933333337 -0.0250000004 0
0.0900000036 -0.0250000004 0
0.086666666 -0.0250000004 0
0.0833333358 -0.0250000004 0
0.0799999982 -0.0250000004 0
0.0766666681 -0.0250000004 0
0.0733333305 -0.0250000004 0
0.0700000003 -0.0250000004 0
0.0666666701 -0.0250000004 0
0.0633333325 -0.0250000004 0
0.0599999987 -0.0250000004 0
0.0566666685 -0.0250000004 0
0.0533333346 -0.0250000004 0
0.0500000007 -0.0250000004 0
0.0466666669 -0.0250000004 0
0.043333333 -0.0250000004 0
0.0399999991 -0.0250000004 0
0.0366666652 -0.0250000004 0
0.0333333351 -0.0250000004 0
0.0299999993 -0.0250000004 0
0.0266666673 -0.0250000004 0
0.0233333334 -0.0250000004 0
0.0199999996 -0.0250000004 0
0.0166666675 -0.0250000004 0
0.0133333337 -0.0250000004 0
0.00999999978 -0.0250000004 0
0.00666666683 -0.0250000004 0
0.00333333341 -0.0250000004 0
0 -0.0250000004 0
0.100000001 -0.0283333343 0
0.0966666639 -0.0283333343 0
0.0933333337 -0.0283333343 0
0.0900000036 -0.0283333343 0
0.086666666 -0.0283333343 0
0.0833333358 -0.0283333343 0
0.0799999982 -0.0283333343 0
0.0766666681 -0.0283333343 0
0.0733333305 -0.0283333343 0
0.0700000003 -0.0283333343 0
0.0666666701 -0.0283333343 0
0.0633333325 -0.0283333343 0
0.0599999987 -0.0283333343 0
0.0566666685 -0.0283333343 0
0.0533333346 -0.0283333343 0
0.0500000007 -0.0283333343 0
0.0466666669 -0.0283333343 0
0.043333333 -0.0283333343 0
0.0399999991 -0.0283333343 0
0.0366666652 -0.0283333343 0
0.0333333351 -0.0283333343 0
0.0299999993 -0.0283333343 0
0.0266666673 -0.0283333343 0
0.0233333334 -0.0283333343 0
0.0199999996 -0.0283333343 0
0.0166666675 -0.0283333343 0
0.0133333337 -0.0283333343 0
0.00999999978 -0.0283333343 0
0.00666666683 -0.0283333343 0
0.00333333341 -0.0283333343 0
0 -0.0283333343 0
0.100000001 -0.0316666663 0
[...]
POINT_DATA 961
SCALARS Temp float 1
LOOKUP_TABLE default
239.25695515015914
206.5525201784672
186.7273142237604
176.61471069646865
172.13748621248297
170.38473483825584
169.76549318293746
169.56449470983452
169.50365034065746
169.486268000671
169.4815364363093
169.48029856343226
169.47998612355926
169.47991036760695
169.47989222369478
169.47988857545855
169.47989085938093
169.47990487884886
169.47996486376292
169.48021103056303
169.48118986322592
169.4849453575997
169.49880224910382
169.54756101976062
169.70970575643338
170.21342272866954
171.6545020650902
175.38633161707185
183.97084455861292
201.16456847111277
231.2887669911337
210.17157297743404
175.5541440741513
154.91379977547828
144.26481045953318
139.50320905380775
137.6212854664934
136.9509427688899
136.7318451309854
136.66513388105255
136.6459824040845
136.64074779603703
136.63937282312665
136.63902489376107
136.63894061899958
136.63892008519605
136.63891602072735
136.6389186064731
136.63893431504027
136.63900137647917
136.63927550302344
136.64036372518603
136.64452222012056
136.6598071068822
136.71333698897095
136.89035882815688
137.43666437211496
138.98732712399087
142.96662830982626
152.02276466972896
170.0000946759064
200.36192654458446
192.21266282279248
157.176714301401
136.0285626034504
125.07522044668188
120.14181118062224
118.17817298777636
117.47405547330027
117.24254451265985
117.17168355822453
117.15124641948071
117.14563754494732
117.14415968690531
117.14378443103043
117.14369288165571
117.14367074806144
117.14366636292299
117.14366919230973
117.1436862760286
117.14375892931672
117.1440551726377
117.14522669240124
117.14969076732434
117.16603538586031
117.22303350935745
117.41061367702062
117.98634220070615
119.61062086297346
123.7511295495376
133.11257980935574
151.52819245581492
182.74629544331643
182.75224548304502
147.63227371934192
126.34350599771024
115.25442563381966
110.2364956858363
108.22884714108162
107.50526725492361
107.26619462574159
107.1926887639514
107.17140057551798
107.16553590546971
107.1639860517809
107.16359121898317
107.16349420953307
107.16347088145436
107.1634662926745
107.16346931686894
107.16348745029914
107.16356430648982
107.16387672251572
107.1651079578485
107.16978678817348
107.18685782574376
107.24616851742489
107.44057625968858
108.03473016421479
109.70370666417288
113.94068917847109
123.48393617500489
142.24006689391922
174.02737834540295
178.36855727515695
143.28881696919117
121.98659506361554
110.86226012920481
105.81238224614857
103.78531187182422
103.05215676079122
102.80905276609813
102.73404445806385
102.71224729235392
102.70622300254794
102.70462663252796
102.70421876086377
102.704118009272
102.70409383996812
102.70408910725914
102.70409227795032
102.70411116529796
102.70419096339117
102.7045144600758
102.70578562515004
102.71060430022239
102.72813427702734
102.78885849186514
102.98729690322976
103.59197033021223
105.28588812177594
109.57640270354935
119.22749948883566
138.18115801137765
170.29058362826146
176.55623367157398
141.52474173879546
120.2397027040206
109.11391152132298
104.05649827674323
102.02281139055617
101.28576310429973
101.040813331701
100.96505425062095
100.94298469401356
100.93687012154375
100.9352461869529
100.93483028826815
100.93472718125305
100.93470245488646
100.93469762221245
100.9347008928211
100.9347202851701
100.93480201235008
100.93513259805287
100.93642863176667
100.94133159965476
100.9591288473443
101.0206467066292
101.22126806686697
101.83147059507988
103.53825549953731
107.85655255119805
117.56242583737342
136.6129225373373
168.8731854620877
175.87650499346526
140.87426860191462
119.60394583823685
108.48296739371659
103.42548204348815
101.39035255847303
100.6520702514361
100.40641581604966
100.33033240755658
100.30813393454102
100.30197347011575
100.30033466640877
100.29991422693942
100.29980975251925
100.2997846826556
100.29977978470137
100.2997831184589
100.2998028277392
100.29988573964575
100.30022055916864
100.30153100009517
100.30648102431832
100.32442200808596
100.3863507355386
100.58806332419738
101.20095092450336
102.91386090150917
107.24496563774723
116.9750299561811
136.06624787625842
168.38731510485925
175.64170247829435
140.65304637509058
119.39048558287983
108.27303341230831
103.21661913953932
101.1815005003757
100.442964009849
100.19709763731424
100.1208964024958
100.09864483828312
100.09246363537855
100.09081759226272
100.09039480764169
100.0902896009313
100.09026433514768
100.09025939798725
100.09026276937702
100.090282665542
100.09036625912464
100.09070343906224
100.0920216436363
100.09699603702873
100.11500860709656
100.17713425465634
100.37935150686798
100.9934406920716
102.70898415133823
107.04533854785583
116.78481957973085
135.89115832445873
168.2339610413583
175.56601211703875
140.58272469917662
119.32345335347661
108.20771839592497
103.15202383288694
101.1171101372937
100.37857742143392
100.1326690491527
100.05643374746627
100.03416364717994
100.02797423809312
100.02632504662645
100.02590116449237
100.02579559744953
100.0257702288132
100.02576527018066
100.02576866288852
100.02578866273836
100.02587262386551
100.02621103286856
100.02753313306405
100.03251925995751
100.0505649417011
100.11277811463349
100.3152109342784
100.92979088916168
102.6463570314707
106.98464492331959
116.72742607881223
135.83884464061947
168.18871551982124
175.54299262563325
140.56160227163505
119.30354678022861
108.18850012147985
103.13313935696875
101.09835657533793
100.35985907635468
100.1139513554515
100.03770947460094
100.01543417379744
100.00924199129682
100.00759159440422
100.00716725129459
100.00706152248756
100.00703610440374
100.00703113510248
100.00703453931459
100.00705459330243
100.00713874019945
100.00747774750408
100.0088016709161
100.01379306156387
100.03185298703318
100.09410221216075
100.2966197197853
100.91138279079544
102.62831072829788
106.96724882423791
116.71109126215013
135.82408479425118
168.17608732455352
175.53632856062262
140.55555422068875
119.29790650209092
108.18310362962434
103.12787202212668
101.0931481300891
100.3546724686693
100.1087703252459
100.03252852499347
100.01025223500868
100.00405929238792
100.00240849875419
100.00198398423356
100.00187818981708
100.00185275010209
100.00184777602917
100.00185118615329
100.00187126674669
100.00195550172516
100.00229478167084
100.00361950234327
100.0086130959093
100.0266787203593
100.08894168822913
100.29148985334382
100.9063158028068
102.6233618267344
106.96250263536666
116.70666327679498
135.82011446120802
168.17272179137169
175.5344779015997
140.55389118289216
119.29637060351969
108.18164689468969
103.12645988778743
101.09175832592253
100.3532923245395
100.10739359355559
100.03115262578515
100.00887634229322
100.00268325655644
100.00103235625323
100.00060778660156
100.00050196847948
100.0004765202333
100.00047154426778
100.00047495728236
100.00049505018505
100.00057932437426
100.00091872075895
100.00224376751694
100.00723822145093
100.02530596622421
100.08757379171392
100.29013224285828
100.9049782506742
102.6220602347066
106.9612603130868
116.70551089684693
135.8190880406544
168.17185891628276
175.53398280257352
140.5534499421842
119.29596666198424
108.18126686763304
103.12609395511166
101.09139992901926
100.35293751980726
100.10704027311408
100.03079980770703
100.00852364109652
100.00233055491557
100.00067963453428
100.00025505023804
100.00014922464521
100.00012377340387
100.00011879679116
100.00012221114848
100.00014230941522
100.00022660001063
100.00056604306369
100.00189121474554
100.0068859827799
100.02495446394259
100.08722389329698
100.28978557810017
100.90463761081666
102.62172996540481
106.96094654739505
116.70522145091819
135.81883186465265
168.17164492904888
175.53385457523152
140.55333656413012
119.29586366044687
108.18117068159881
103.12600193068383
101.09131024360882
100.35284902954918
100.1069523283948
100.03071207928542
100.00843598284679
100.00224291210536
100.0005919913287
100.00016740419478
100.00006157661277
100.00003612444623
100.00003114765038
100.00003456259523
100.00005466305653
100.00013896008942
100.00047842066544
100.0018036371281
100.00679851242256
100.02486723306896
100.0871371597801
100.28969980359795
100.90455355253934
102.62164875870685
106.96086974294437
116.7051509651987
135.8187698207905
168.1715934561781
175.53382289376162
140.5533087473878
119.2958385154739
108.18114732926506
103.12597970134601
101.0912886704725
100.35282780952251
100.10693128078744
100.03069110657628
100.0084150380873
100.00222197560865
100.00057105622632
100.00014646872145
100.00004064063587
100.00001518818628
100.00001021133605
100.00001362650843
100.00003372778646
100.00011802712524
100.00045749371976
100.00178272490214
100.00677763391374
100.02484642664051
100.08711649706238
100.28967940801856
100.90453362024539
102.62162957648908
106.96085169347971
116.70513450720543
135.81875541245415
168.17158159050118
175.5338177045206
140.55330397646708
119.29583421764698
108.18114330644542
103.12597584515527
101.09128491070652
100.35282410085878
100.10692759562222
100.03068742999781
100.00841136328805
100.00221830020364
100.00056737980981
100.00014279153558
100.00003696300188
100.00001151033683
100.00000653341434
100.00000994862384
100.0000300500985
100.00011434998639
100.00045381795869
100.00177905238465
100.00677396858106
100.02484277625214
100.08711287588562
100.28967584061346
100.90453014634889
102.62162625639509
106.96084861141608
116.70513176384846
135.81875312825576
168.17157950484474
175.53382422226977
140.55331009076986
119.29583982167381
108.1811486192968
103.12598095027622
101.09128985509713
100.35282892677597
100.10693234226324
100.03069212845881
100.00841603487903
100.00222295791814
100.00057203084828
100.00014743957351
100.0000416097762
100.00001615660742
100.00001117948263
100.00001459456811
100.00003469582983
100.00011899514242
100.00045846156361
100.00178369210211
100.00677859926323
100.02484738736176
100.0871174471287
100.28968033482496
100.90453449858171
102.62163036046397
106.96085231465497
116.70513490112495
135.8187555935438
168.17158188006616
175.5338642379229
140.55334495822424
119.29587106425751
108.18117725251092
103.12600781771988
101.09131559195323
100.35285397894282
100.10695700279695
100.03071657792384
100.00844037747041
100.00224724977727
100.00059630015535
100.00017169950351
100.00006586605441
100.00004041153224
100.000035433883
100.00003884859647
100.00005894909073
100.00014324621701
100.00048270658334
100.00180792158238
100.00680279193944
100.02487149970116
100.08714139757588
100.28970398370015
100.9045576272559
102.62165265630983
106.96087336841428
116.70515421702179
135.81877263692738
168.1715957449421
175.53402269290783
140.55348486867263
119.29599725044534
108.18129380143914
103.12611793725199
101.09142165662132
100.35295763414895
100.10705931330344
100.03081818559365
100.00854164204634
100.00234835818404
100.0006973422909
100.00027271543198
100.00016687230342
100.00014141438163
100.00013643549295
100.0001398493604
100.00015994801579
100.0002442395382
100.00058368334949
100.0019088531267
100.00690360979998
100.02497205527442
100.08724139699886
100.2898028979444
100.90465458877476
102.62174636874508
106.9609620661413
116.70523570559159
135.81884441626795
168.1716553551984
175.53463194740567
140.55402686682973
119.2964899664274
108.18175225643022
103.1265538655878
101.09184364758887
100.35337154220727
100.10746884360175
100.03122550810765
100.00894793042671
100.0027541970819
100.00110299968485
100.0006783046807
100.0005724376848
100.00054697179561
100.00054199018246
100.00054540232802
100.00056549711675
100.0006497759523
100.00098917938362
100.00231423056863
100.00730866762234
100.0253763265618
100.08764389968923
100.29020176421452
100.90504660417496
102.62212652640821
106.96132330989951
116.70556905546015
135.81913956933468
168.17190190251438
175.53690237566707
140.55606360276084
119.29835697392863
108.18350248877583
103.12822856923326
101.09347263529104
100.35497474881578
100.10905855717859
100.03280868651797
100.01052818568331
100.00433324446257
100.00268158440781
100.00225672473557
100.00215080304874
100.00212531974444
100.0021203325333
100.00212374148894
100.00214382902313
100.00222808213223
100.00256739679712
100.00389216572403
100.00888578056406
100.02695126331045
100.08921360454377
100.29176004855826
100.90658221783359
102.62362110805084
106.96274996562774
116.70689248907016
135.8203185345882
168.1728933834041
175.54505754860102
140.56345131597737
119.30518949065707
108.18995775652719
103.13444413426595
101.09954658476637
100.36097128102246
100.11501609058804
100.03874816109175
100.01645998108465
100.01026203376016
100.0086092829765
100.00818405497454
100.00807801710786
100.00805249829617
100.00804750030558
100.00805090389935
100.00807097948115
100.00815518653255
100.00849432761598
100.00981849491062
100.0148101997535
100.03287019741988
100.09511830826074
100.2976314757489
100.91238346333151
102.62928856321201
106.96818614184252
116.71196474642296
135.8248672697751
168.17675146849996
175.5731460463662
140.5891693328628
119.32920363501927
108.21282688075989
103.15659908456946
101.12129059808976
100.38249829627341
100.13643836506334
100.0601242885219
100.03781752723273
100.03161270121417
100.02995758244664
100.02953159319348
100.02942532674463
100.0293997402898
100.02939472276817
100.02939811824753
100.02941817720533
100.02950231364106
100.02984115957284
100.03116420095797
100.03615197356545
100.05419960431571
100.11641274412189
100.31883742232175
100.9333892560751
102.64988909144414
106.98804989959105
116.73062074122747
135.8417294770151
168.19118547611413
175.6651265923924
140.67442447367617
119.40963688609729
108.29005279425596
103.23186067014193
101.19545257936001
100.45610087953546
100.2097832414689
100.13336152241554
100.11101378224762
100.10479457812701
100.10313473879035
100.10270729655713
100.1026006138497
100.10257490667584
100.10256985566774
100.10257324021296
100.10259328157933
100.10267733147104
100.10301575847367
100.10433700175217
100.10931775470799
100.12734094636434
100.18947786695512
100.39169136173408
101.00572495754164
102.72109864856195
107.05708690211975
116.79592108945272
135.90126870088358
168.24271429794095
175.9490231619792
140.94118804775826
119.66408390600611
108.53634691384256
103.47323707362038
101.43415030051759
100.69348945147809
100.44659821185765
100.36994974161186
100.34752011004935
100.34127350323679
100.33960501349166
100.3391750037803
100.33906761874664
100.33904170881708
100.33903660304688
100.33903997472903
100.33906000823548
100.33914399323449
100.33948197751792
100.34080091982162
100.34577121060042
100.36375329887706
100.4257468527576
100.62751895959171
101.24036154070482
102.9529235757296
107.283096978551
117.01134791678221
136.0996453174816
168.41659585835055
176.7654945868543
141.72015053470938
120.41557997301474
109.2695125123966
104.19542029273855
102.15050359111369
101.40711013332702
101.15908217761321
101.08200589575762
101.05942837849763
101.05313411005042
101.05145100689275
101.0510167816958
101.05090829658856
101.0508820646252
101.05087687282646
101.05088023189441
101.05090028834256
101.05098431564272
101.05132212677822
101.0526391606429
101.05759751035012
101.07552361674742
101.13729252269904
101.33828221549336
101.94875800561881
103.65515702256877
107.97149376329838
117.67285314188885
136.7155517274845
168.96448749934328
178.92410880432487
143.81378269821792
122.45856402135213
111.27719839196432
106.18177448223999
104.12576926167308
103.3774039761115
103.127390372375
103.0495928939198
103.02677344597136
103.02040317733835
103.0186971986999
103.01825650832492
103.01814641362876
103.0181196961769
103.01811437446001
103.01811772503912
103.01813786924184
103.01822219523763
103.01856067530154
103.01987825518542
103.02482952348215
103.04270185640273
103.10419724054722
103.30406328945097
103.91063927915154
105.60552504485679
109.89334413315935
119.53482236844009
138.4700502596347
170.55175225962296
184.089010926567
148.90961476727423
127.48465554976036
116.24808445312921
111.11775751711295
109.04411648078457
108.28798833715508
108.03492824149325
107.9560402197428
107.93285985558428
107.92637764913201
107.9246382831063
107.92418827427969
107.92407594638668
107.92404853516963
107.92404302740786
107.9240463802405
107.92406672545646
107.92415182318338
107.92449269697092
107.92581671164194
107.93077790668822
107.94863897505253
108.00992987679051
108.20861257274073
108.81016103184872
110.48772635703578
114.72604102276064
124.253733488704
142.97097420696377
174.6998642091876
195.09300976842798
159.94071166123746
138.46860064924212
127.16576947907194
121.99321861321484
119.89692239484576
119.13048803854743
118.87329732301134
118.7929151096932
118.76923839691241
118.76260234549592
118.76081722927576
118.7603545121038
118.76023917163454
118.76021082888558
118.76020507498569
118.76020845196345
118.76022917309575
118.76031578876729
118.76066190409873
118.76200274675996
118.76700830348136
118.78496426170881
118.84633640955315
119.04444343062964
119.64161622361051
121.29963896864379
125.47162149317026
134.81612646826835
153.16242077154914
184.264670025467
215.6384732190045
180.85263489849973
159.3900314238687
148.07433504688248
142.87131565917943
140.75275207816605
139.97461567430014
139.71239396075305
139.63012496122667
139.6058096749154
139.59897393197406
139.59712945238635
139.5966501979222
139.59653083974797
139.59650134423745
139.59649526895785
139.59649871937833
139.59652007389752
139.59660921157248
139.59696464966123
139.59833735883566
139.60344121712578
139.62167275962548
139.6836857819807
139.8827681756333
140.4791912872939
142.12389949184328
146.23188917595127
155.36678806103666
173.12561126580067
203.3357793791518
249.49603570405
214.82277602737764
193.78835491343298
182.58871109350693
177.39357297340212
175.2596925584193
174.46991784847967
174.20202615740456
174.11750927328035
174.09241290514535
174.08532971222112
174.08341085686556
174.08291103023674
174.0827867969599
174.082755615961
174.0827492245803
174.08275284107972
174.08277515306645
174.08286813347507
174.08323758807373
174.08466165728404
174.08993314505122
174.10868426599498
174.17213566453628
174.37460199975644
174.97682735175079
176.62358891295733
180.69754567476755
189.6574891477198
206.9221281323595
235.1727206882445
