# vtk DataFile Version 2.0
Unstructured Grid Example
ASCII
DATASET UNSTRUCTURED_GRID

POINTS 961.0 float
0.100000001 0.00499999989 0
0.0966666639 0.00499999989 0
0.0933333337 0.00499999989 0
0.0900000036 0.00499999989 0
0.086666666 0.00499999989 0
0.0833333358 0.00499999989 0
0.0799999982 0.00499999989 0
0.0766666681 0.00499999989 0
0.0733333305 0.00499999989 0
0.0700000003 0.00499999989 0
0.0666666701 0.00499999989 0
0.0633333325 0.00499999989 0
0.0599999987 0.00499999989 0
0.0566666685 0.00499999989 0
0.0533333346 0.00499999989 0
0.0500000007 0.00499999989 0
0.0466666669 0.00499999989 0
0.043333333 0.00499999989 0
0.0399999991 0.00499999989 0
0.0366666652 0.00499999989 0
0.0333333351 0.00499999989 0
0.0299999993 0.00499999989 0
0.0266666673 0.00499999989 0
0.0233333334 0.00499999989 0
0.0199999996 0.00499999989 0
0.0166666675 0.00499999989 0
0.0133333337 0.00499999989 0
0.00999999978 0.00499999989 0
0.00666666683 0.00499999989 0
0.00333333341 0.00499999989 0
0.0 0.00499999989 0
0.100000001 0.00166666671 0
0.0966666639 0.00166666671 0
0.0933333337 0.00166666671 0
0.0900000036 0.00166666671 0
0.086666666 0.00166666671 0
0.0833333358 0.00166666671 0
0.0799999982 0.00166666671 0
0.0766666681 0.00166666671 0
0.0733333305 0.00166666671 0
0.0700000003 0.00166666671 0
0.0666666701 0.00166666671 0
0.0633333325 0.00166666671 0
0.0599999987 0.00166666671 0
0.0566666685 0.00166666671 0
0.0533333346 0.00166666671 0
0.0500000007 0.00166666671 0
0.0466666669 0.00166666671 0
0.043333333 0.00166666671 0
0.0399999991 0.00166666671 0
0.0366666652 0.00166666671 0
0.0333333351 0.00166666671 0
0.0299999993 0.00166666671 0
0.0266666673 0.00166666671 0
0.0233333334 0.00166666671 0
0.0199999996 0.00166666671 0
0.0166666675 0.00166666671 0
0.0133333337 0.00166666671 0
0.00999999978 0.00166666671 0
0.00666666683 0.00166666671 0
0.00333333341 0.00166666671 0
0.0 0.00166666671 0
0.100000001 -0.00166666671 0
0.0966666639 -0.00166666671 0
0.0933333337 -0.00166666671 0
0.0900000036 -0.00166666671 0
0.086666666 -0.00166666671 0
0.0833333358 -0.00166666671 0
0.0799999982 -0.00166666671 0
0.0766666681 -0.00166666671 0
0.0733333305 -0.00166666671 0
0.0700000003 -0.00166666671 0
0.0666666701 -0.00166666671 0
0.0633333325 -0.00166666671 0
0.0599999987 -0.00166666671 0
0.0566666685 -0.00166666671 0
0.0533333346 -0.00166666671 0
0.0500000007 -0.00166666671 0
0.0466666669 -0.00166666671 0
0.043333333 -0.00166666671 0
0.0399999991 -0.00166666671 0
0.0366666652 -0.00166666671 0
0.0333333351 -0.00166666671 0
0.0299999993 -0.00166666671 0
0.0266666673 -0.00166666671 0
0.0233333334 -0.00166666671 0
0.0199999996 -0.00166666671 0
0.0166666675 -0.00166666671 0
0.0133333337 -0.00166666671 0
0.00999999978 -0.00166666671 0
0.00666666683 -0.00166666671 0
0.00333333341 -0.00166666671 0
0.0 -0.00166666671 0
0.100000001 -0.00499999989 0
0.0966666639 -0.00499999989 0
0.0933333337 -0.00499999989 0
0.0900000036 -0.00499999989 0
0.086666666 -0.00499999989 0
0.0833333358 -0.00499999989 0
0.0799999982 -0.00499999989 0
0.0766666681 -0.00499999989 0
0.0733333305 -0.00499999989 0
0.0700000003 -0.00499999989 0
0.0666666701 -0.00499999989 0
0.0633333325 -0.00499999989 0
0.0599999987 -0.00499999989 0
0.0566666685 -0.00499999989 0
0.0533333346 -0.00499999989 0
0.0500000007 -0.00499999989 0
0.0466666669 -0.00499999989 0
0.043333333 -0.00499999989 0
0.0399999991 -0.00499999989 0
0.0366666652 -0.00499999989 0
0.0333333351 -0.00499999989 0
0.0299999993 -0.00499999989 0
0.0266666673 -0.00499999989 0
0.0233333334 -0.00499999989 0
0.0199999996 -0.00499999989 0
0.0166666675 -0.00499999989 0
0.0133333337 -0.00499999989 0
0.00999999978 -0.00499999989 0
0.00666666683 -0.00499999989 0
0.00333333341 -0.00499999989 0
0.0 -0.00499999989 0
0.100000001 -0.00833333377 0
0.0966666639 -0.00833333377 0
0.0933333337 -0.00833333377 0
0.0900000036 -0.00833333377 0
0.086666666 -0.00833333377 0
0.0833333358 -0.00833333377 0
0.0799999982 -0.00833333377 0
0.0766666681 -0.00833333377 0
0.0733333305 -0.00833333377 0
0.0700000003 -0.00833333377 0
0.0666666701 -0.00833333377 0
0.0633333325 -0.00833333377 0
0.0599999987 -0.00833333377 0
0.0566666685 -0.00833333377 0
0.0533333346 -0.00833333377 0
0.0500000007 -0.00833333377 0
0.0466666669 -0.00833333377 0
0.043333333 -0.00833333377 0
0.0399999991 -0.00833333377 0
0.0366666652 -0.00833333377 0
0.0333333351 -0.00833333377 0
0.0299999993 -0.00833333377 0
0.0266666673 -0.00833333377 0
0.0233333334 -0.00833333377 0
0.0199999996 -0.00833333377 0
0.0166666675 -0.00833333377 0
0.0133333337 -0.00833333377 0
0.00999999978 -0.00833333377 0
0.00666666683 -0.00833333377 0
0.00333333341 -0.00833333377 0
0.0 -0.00833333377 0
0.100000001 -0.0116666667 0
0.0966666639 -0.0116666667 0
0.0933333337 -0.0116666667 0
0.0900000036 -0.0116666667 0
0.086666666 -0.0116666667 0
0.0833333358 -0.0116666667 0
0.0799999982 -0.0116666667 0
0.0766666681 -0.0116666667 0
0.0733333305 -0.0116666667 0
0.0700000003 -0.0116666667 0
0.0666666701 -0.0116666667 0
0.0633333325 -0.0116666667 0
0.0599999987 -0.0116666667 0
0.0566666685 -0.0116666667 0
0.0533333346 -0.0116666667 0
0.0500000007 -0.0116666667 0
0.0466666669 -0.0116666667 0
0.043333333 -0.0116666667 0
0.0399999991 -0.0116666667 0
0.0366666652 -0.0116666667 0
0.0333333351 -0.0116666667 0
0.0299999993 -0.0116666667 0
0.0266666673 -0.0116666667 0
0.0233333334 -0.0116666667 0
0.0199999996 -0.0116666667 0
0.0166666675 -0.0116666667 0
0.0133333337 -0.0116666667 0
0.00999999978 -0.0116666667 0
0.00666666683 -0.0116666667 0
0.00333333341 -0.0116666667 0
0.0 -0.0116666667 0
0.100000001 -0.0149999997 0
0.0966666639 -0.0149999997 0
0.0933333337 -0.0149999997 0
0.0900000036 -0.0149999997 0
0.086666666 -0.0149999997 0
0.0833333358 -0.0149999997 0
0.0799999982 -0.0149999997 0
0.0766666681 -0.0149999997 0
0.0733333305 -0.0149999997 0
0.0700000003 -0.0149999997 0
0.0666666701 -0.0149999997 0
0.0633333325 -0.0149999997 0
0.0599999987 -0.0149999997 0
0.0566666685 -0.0149999997 0
0.0533333346 -0.0149999997 0
0.0500000007 -0.0149999997 0
0.0466666669 -0.0149999997 0
0.043333333 -0.0149999997 0
0.0399999991 -0.0149999997 0
0.0366666652 -0.0149999997 0
0.0333333351 -0.0149999997 0
0.0299999993 -0.0149999997 0
0.0266666673 -0.0149999997 0
0.0233333334 -0.0149999997 0
0.0199999996 -0.0149999997 0
0.0166666675 -0.0149999997 0
0.0133333337 -0.0149999997 0
0.00999999978 -0.0149999997 0
0.00666666683 -0.0149999997 0
0.00333333341 -0.0149999997 0
0.0 -0.0149999997 0
0.100000001 -0.0183333326 0
0.0966666639 -0.0183333326 0
0.0933333337 -0.0183333326 0
0.0900000036 -0.0183333326 0
0.086666666 -0.0183333326 0
0.0833333358 -0.0183333326 0
0.0799999982 -0.0183333326 0
0.0766666681 -0.0183333326 0
0.0733333305 -0.0183333326 0
0.0700000003 -0.0183333326 0
0.0666666701 -0.0183333326 0
0.0633333325 -0.0183333326 0
0.0599999987 -0.0183333326 0
0.0566666685 -0.0183333326 0
0.0533333346 -0.0183333326 0
0.0500000007 -0.0183333326 0
0.0466666669 -0.0183333326 0
0.043333333 -0.0183333326 0
0.0399999991 -0.0183333326 0
0.0366666652 -0.0183333326 0
0.0333333351 -0.0183333326 0
0.0299999993 -0.0183333326 0
0.0266666673 -0.0183333326 0
0.0233333334 -0.0183333326 0
0.0199999996 -0.0183333326 0
0.0166666675 -0.0183333326 0
0.0133333337 -0.0183333326 0
0.00999999978 -0.0183333326 0
0.00666666683 -0.0183333326 0
0.00333333341 -0.0183333326 0
0.0 -0.0183333326 0
0.100000001 -0.0216666665 0
0.0966666639 -0.0216666665 0
0.0933333337 -0.0216666665 0
0.0900000036 -0.0216666665 0
0.086666666 -0.0216666665 0
0.0833333358 -0.0216666665 0
0.0799999982 -0.0216666665 0
0.0766666681 -0.0216666665 0
0.0733333305 -0.0216666665 0
0.0700000003 -0.0216666665 0
0.0666666701 -0.0216666665 0
0.0633333325 -0.0216666665 0
0.0599999987 -0.0216666665 0
0.0566666685 -0.0216666665 0
0.0533333346 -0.0216666665 0
0.0500000007 -0.0216666665 0
0.0466666669 -0.0216666665 0
0.043333333 -0.0216666665 0
0.0399999991 -0.0216666665 0
0.0366666652 -0.0216666665 0
0.0333333351 -0.0216666665 0
0.0299999993 -0.0216666665 0
0.0266666673 -0.0216666665 0
0.0233333334 -0.0216666665 0
0.0199999996 -0.0216666665 0
0.0166666675 -0.0216666665 0
0.0133333337 -0.0216666665 0
0.00999999978 -0.0216666665 0
0.00666666683 -0.0216666665 0
0.00333333341 -0.0216666665 0
0.0 -0.0216666665 0
0.100000001 -0.0250000004 0
0.0966666639 -0.0250000004 0
0.0933333337 -0.0250000004 0
0.0900000036 -0.0250000004 0
0.086666666 -0.0250000004 0
0.0833333358 -0.0250000004 0
0.0799999982 -0.0250000004 0
0.0766666681 -0.0250000004 0
0.0733333305 -0.0250000004 0
0.0700000003 -0.0250000004 0
0.0666666701 -0.0250000004 0
0.0633333325 -0.0250000004 0
0.0599999987 -0.0250000004 0
0.0566666685 -0.0250000004 0
0.0533333346 -0.0250000004 0
0.0500000007 -0.0250000004 0
0.0466666669 -0.0250000004 0
0.043333333 -0.0250000004 0
0.0399999991 -0.0250000004 0
0.0366666652 -0.0250000004 0
0.0333333351 -0.0250000004 0
0.0299999993 -0.0250000004 0
0.0266666673 -0.0250000004 0
0.0233333334 -0.0250000004 0
0.0199999996 -0.0250000004 0
0.0166666675 -0.0250000004 0
0.0133333337 -0.0250000004 0
0.00999999978 -0.0250000004 0
0.00666666683 -0.0250000004 0
0.00333333341 -0.0250000004 0
0.0 -0.0250000004 0
0.100000001 -0.0283333343 0
0.0966666639 -0.0283333343 0
0.0933333337 -0.0283333343 0
0.0900000036 -0.0283333343 0
0.086666666 -0.0283333343 0
0.0833333358 -0.0283333343 0
0.0799999982 -0.0283333343 0
0.0766666681 -0.0283333343 0
0.0733333305 -0.0283333343 0
0.0700000003 -0.0283333343 0
0.0666666701 -0.0283333343 0
0.0633333325 -0.0283333343 0
0.0599999987 -0.0283333343 0
0.0566666685 -0.0283333343 0
0.0533333346 -0.0283333343 0
0.0500000007 -0.0283333343 0
0.0466666669 -0.0283333343 0
0.043333333 -0.0283333343 0
0.0399999991 -0.0283333343 0
0.0366666652 -0.0283333343 0
0.0333333351 -0.0283333343 0
0.0299999993 -0.0283333343 0
0.0266666673 -0.0283333343 0
0.0233333334 -0.0283333343 0
0.0199999996 -0.0283333343 0
0.0166666675 -0.0283333343 0
0.0133333337 -0.0283333343 0
0.00999999978 -0.0283333343 0
0.00666666683 -0.0283333343 0
0.00333333341 -0.0283333343 0
0.0 -0.0283333343 0
[...]
POINT_DATA 961.0
SCALARS Temp float 1
LOOKUP_TABLE default
238.60709025134108
207.15514599699893
188.3618902060539
178.69534449558518
174.3639996529245
172.64350529658546
172.02625197202693
171.8227911978745
171.76027308860373
171.74215298716123
171.73715198082465
171.73582770826806
171.735489223438
171.73540534884586
171.7353853318176
171.73538165500239
171.73538533181156
171.7354053488191
171.73548922352657
171.73582770866057
171.73715197620328
171.74215298608462
171.76027310498907
171.82279112287617
172.0262521223467
172.64350398881695
174.36399898736641
178.6953355806242
188.36188253950058
207.15516432483466
238.60706481577841
207.1552293329101
174.671834664063
155.25796169129552
145.26929940649958
140.79216586403035
139.01317562942648
138.37473585584507
138.16423085394064
138.09953137997942
138.08077464947002
138.07559685260028
138.07422550736817
138.07387493122425
138.0737880471567
138.07376730909183
138.07376349946495
138.07376730908553
138.07378804712863
138.07387493131398
138.07422550776582
138.07559684777573
138.08077464818416
138.09953139621751
138.1642307733967
138.37473599981882
139.01317423298605
140.7921650203687
145.26928958502654
155.2579521651248
174.6718357944733
207.15516780320473
188.36196257902472
155.25796077949906
135.46315866366467
125.27158053921418
120.69992943238167
118.88190963493285
118.2289480632315
118.01349583010649
117.94723090918346
117.92800851483544
117.92269921231733
117.92129232756331
117.92093250116265
117.92084328747477
117.92082198548277
117.9208180712252
117.920821985476
117.92084328744473
117.92093250124921
117.9212923279466
117.92269920726099
117.92800851305482
117.94723092389422
118.01349573992906
118.2289481807539
118.88190809818961
120.6999281844994
125.27156926691882
135.46314434286785
155.25795172953931
188.3618849984074
178.69541859962854
145.26930227526398
125.27158587624663
114.96814903840628
110.34233641765482
108.50105266015412
107.83910562283553
107.6204865381501
107.55318886248337
107.5336510071945
107.52825051992889
107.52681848300197
107.52645199062455
107.52636107107527
107.52633935037032
107.52633535766434
107.526339350363
107.52636107104279
107.52645199070503
107.52681848335781
107.52825051463594
107.53365100476066
107.55318887490125
107.62048643678631
107.83910570570565
108.50105097638074
110.34233474827619
114.96813641307207
125.27156859298921
145.26928838907327
178.69533519007166
174.36408645092666
140.79218051910087
120.6999465748608
110.34234839163898
105.68909981964532
103.8354585770802
103.16851234173991
102.94805403771355
102.880132970983
102.86039808563461
102.85493891125998
102.85349025354449
102.85311925264175
102.85302715541003
102.85300514045865
102.85300109193756
102.85300514045099
102.85302715537522
102.85311925271472
102.85349025386762
102.85493890575226
102.86039808254247
102.8801329810482
102.94805392630333
103.16851239341139
103.83545677960872
105.68909784612181
110.34233499840147
120.69992789744684
140.79216473622262
174.36400079014211
172.64359770385454
139.01319163129003
118.88192749565522
108.50106529383805
103.83545923526908
101.97595568214888
101.3065099245397
101.08508465452216
101.01682035180524
100.99697239368818
100.99147827970094
100.99001940073965
100.9896455467793
100.98955268523194
100.98953047510638
100.98952638899898
100.98953047509818
100.98955268519506
100.98964554684483
100.99001940103182
100.99147827402102
100.99697239004851
101.01682035996242
101.08508453577431
101.30650995461176
101.97595381577595
103.83545710197802
108.50105155519918
118.88190827029237
139.01317516135123
172.64351124737036
172.02634553969776
138.37475298432682
118.22896726267838
107.83911978340731
103.16851460473232
101.30651155899082
100.63593937763234
100.41405369388929
100.34561721478643
100.32570975732702
100.32019644970433
100.31873173652664
100.31835619775656
100.31826287107614
100.31824053905233
100.31823642904568
100.31824053904369
100.31826287103748
100.31835619781594
100.31873173679378
100.32019644390206
100.32570975330061
100.34561722166144
100.41405357068867
100.63593939563061
101.3065096591236
103.16851240274931
107.83910591245792
118.2289478446414
138.3747362870548
172.0262588221526
171.8228781645413
138.16424585512286
118.013514333739
107.62050043136911
102.94805615455589
101.08508617847698
100.41405359059422
100.19196871989455
100.12345347745935
100.10351732826975
100.0979943057669
100.09652650750938
100.09615004223116
100.09605645069207
100.09603404713438
100.0960299228098
100.0960340471256
100.09605645065207
100.09615004228606
100.09652650775926
100.09799429988753
100.10351732400777
100.12345348360459
100.19196859440945
100.41405360299485
101.08508426480633
102.9480539270382
107.62048651510051
118.01349485384664
138.1642290879933
171.82279136722596
171.7603534570043
138.099544676287
117.94724905171195
107.55320272495729
102.8801351543419
101.01682197220137
100.34561721621913
100.12345358417386
100.05490537454756
100.03495652999632
100.0294289773813
100.02795966926125
100.02758273019637
100.0274889977745
100.0274665548452
100.02746242245377
100.02746655483607
100.0274889977336
100.0275827302483
100.0279596695004
100.02942897145871
100.03495652560929
100.05490538033567
100.12345345768162
100.34561722638158
101.01682005352183
102.88013291829462
107.55318879446175
117.947229553344
138.09952788900853
171.76026663673673
171.74223390383398
138.08078846559437
117.92802665084133
107.5336648168758
102.86040022838193
100.9969739844604
100.32570973357089
100.10351741115828
100.03495650640586
100.01500249069893
100.00947298913707
100.0080029969858
100.00762583276483
100.00753203041806
100.00750956719287
100.00750543053422
100.0075095671836
100.00753203037667
100.00762583281492
100.00800299721891
100.00947298319262
100.01500248625294
100.03495651204048
100.10351728427374
100.32570974293598
100.99697206413109
102.86039798971015
107.53365088220811
117.92800714726897
138.08077167280038
171.74214707728373
171.73724360381777
138.07561224580672
117.92271762263293
107.52826436564186
102.85494105702976
100.99147987170197
100.32019642772522
100.09799439067012
100.02942895582288
100.0094729911546
100.00394271356824
100.00247243410476
100.00209517040611
100.00200133568674
100.0019788626711
100.00197472389547
100.00197886266156
100.00200133564475
100.00209517045477
100.00247243433401
100.00394270761248
100.00947298668169
100.02942896139488
100.09799426364229
100.32019643682337
100.9914779508593
102.85493881758886
107.52825042980157
117.92269811764675
138.07559545155308
171.73715677559363
171.7359199057826
138.07424099422616
117.92131077087099
107.52683234723828
102.85349241269817
100.99002100033896
100.3187317192134
100.096526595927
100.02795965082595
100.0080030020064
100.00247243707511
100.00100204538695
100.00062474076128
100.00053089205429
100.00050841461996
100.0005042748601
100.00050841460995
100.00053089201108
100.00062474080724
100.00100204561066
100.00247243110786
100.00800299751171
100.02795965635772
100.09652646882527
100.31873172819162
100.99001907929699
102.85349017298141
107.52681841100944
117.9212912654332
138.07422419951115
171.73583307704587
171.73557078522634
138.07388894438296
117.92095072284842
107.52646587248728
102.8531214289313
100.98964714814973
100.3183561743952
100.09615012179907
100.02758270203506
100.00762582779973
100.00209516331257
100.0006247306742
100.00024741032097
100.00015355596317
100.00013107666116
100.00012693647184
100.00013107664957
100.00015355591573
100.0002474103581
100.00062473088028
100.00209515731251
100.00762582324809
100.0275827074734
100.09614999455157
100.31835618316184
100.98964522681302
102.85311918883619
107.52645193579215
117.92093121688411
138.07387214911316
171.73548395593753
171.73548582694494
138.0738013616956
117.92086174143537
107.52637506022393
102.85302934788562
100.98955426175515
100.31826280852492
100.09605648654072
100.02748892450656
100.0075319798991
100.00200128287601
100.00053083618276
100.0001535101515
100.00005965364831
100.0000371736033
100.00003303323652
100.00003717358638
100.00005965358662
100.00015351015661
100.0005308363234
100.00200127675153
100.0075319751261
100.02748892957632
100.0960563587178
100.3182628164493
100.98955233926036
102.85302710629732
107.52636112171874
117.92084223341578
138.0737845642399
171.73539899548078
171.73546958614503
138.07378407849976
117.92084123001861
107.52635344660428
102.85300722270972
100.98953187685774
100.31824028231112
100.09603388266922
100.02746627908654
100.00750931327366
100.0019786060287
100.0005081547018
100.0001308266986
100.00003696940881
100.00001448907585
100.00001034863399
100.00001448904166
100.00003696929879
100.00013082659143
100.00050815460335
100.00197859943052
100.00750930762692
100.02746628265379
100.09603375243499
100.31824028662109
100.9895299492973
102.85300497448206
107.52633949995855
117.92082171266814
138.07376727105753
171.7353827447197
171.7354873761893
138.0737832959489
117.92083752139555
107.52634887191837
102.85300238265877
100.98952693623582
100.31823529565885
100.09602887215152
100.02746125564444
100.00750428291161
100.00197357210628
100.00050311904305
100.00012579024246
100.00003193260929
100.0000094521388
100.00000531164878
100.000009452052
100.00003193234637
100.00012578976157
100.00050311810648
100.00197356376869
100.00750427391853
100.0274612532389
100.09602873201614
100.31823528470919
100.98952498678949
102.85300010520136
107.52633488891094
117.92081796192933
138.073766443151
171.73540048942846
171.73548777642497
138.07378370057802
117.92083791257839
107.52634923947288
102.85300272639434
100.98952725962945
100.31823560349594
100.09602916835487
100.02746154369449
100.00750456570294
100.00197385179838
100.00050339706851
100.00012606744914
100.00003220944679
100.000009728819
100.00000558825329
100.00000972858366
100.00003220872964
100.00012606579195
100.00050339334108
100.00197383735541
100.00750454439049
100.02746151834863
100.0960289887598
100.31823552977671
100.98952521774538
102.85300032280739
107.52633509694313
117.9208181661477
138.07376664495843
171.73540068655316
171.73547162922247
138.0737861492065
117.92084322418903
107.52635532458952
102.85300897773065
100.98953352922352
100.31824185149134
100.09603538908864
100.02746774219075
100.00751074922543
100.00198002653306
100.0005095672205
100.00013223545652
100.00003837654373
100.00001589555092
100.00001175480668
100.0000158949255
100.00003837456916
100.00013223033349
100.00050955473955
100.00197999177367
100.0075106846341
100.02746763225072
100.09603505767721
100.31824152734141
100.98953110717562
102.85300604251528
107.52634049679978
117.92082266366589
138.07376820318478
171.7353836452302
171.73549371820872
138.0738092800818
117.92086940054219
107.52638222166513
102.85303605031032
100.98956054125988
100.3182687361699
100.09606215201283
100.0274944151258
100.00753736580941
100.00200661230421
100.000536138075
100.00015879985972
100.00006493842503
100.00004245650358
100.00003831533566
100.00004245493331
100.0000649332339
100.0001587852668
100.0005360999929
100.00200651406493
100.0075371573901
100.02749400794137
100.09606126034495
100.3182674481129
100.98955660356732
102.85303093440008
107.52636452059906
117.92084537272191
138.07378750580273
171.73540187755384
171.7355992746452
138.0739183129772
117.92097832586609
107.52649181912295
102.85314549372694
100.98966942374945
100.31837698185532
100.09616987482623
100.02760178515369
100.00764453194854
100.00211367562105
100.00064315564546
100.00026579928762
100.00017193134717
100.00014944722538
100.00014530512685
100.00014944355355
100.00017191860071
100.00026576091689
100.00064304849805
100.00211339324869
100.00764387620472
100.02760039221963
100.09616701605678
100.31837213870979
100.98965966083024
102.85313171249514
107.52646240353421
117.9209399009028
138.07388046658542
171.73549118216167
171.73602657870504
138.0743402719931
117.92140637658719
107.52692096349536
102.85357291078522
100.99009393305865
100.3187986939702
100.09658950477791
100.02802012557343
100.00806218873818
100.00253101755068
100.00106036999863
100.00068296751766
100.00058908440678
100.00056659555365
100.00056245158707
100.00056658759735
100.0005890554371
100.00068287468079
100.00106009282538
100.00253024560453
100.00806024792011
100.02801568432042
100.09658014346792
100.31878139582334
100.99006274055647
102.85352596619333
107.52684532906231
117.92130990585477
138.07423677752226
171.73585181084684
171.73755937577084
138.07593829291417
117.923025314133
107.5285409024466
102.85518268761301
100.99169049624834
100.32038391435012
100.098167033975
100.02959331352997
100.00963329060824
100.00410125181808
100.00263028664213
100.00225277951513
100.00215886473258
100.00213636671897
100.00213221934055
100.00213635076925
100.00215880400891
100.00225257344577
100.00262963070492
100.00409930196949
100.00962799058753
100.02958021452893
100.09813770766429
100.32032564067764
100.99158454616219
102.85501441731661
107.52828986623443
117.9227027566743
138.07557506823647
171.73711942073538
171.74320790442025
138.08175462589588
117.92890439160537
107.53440546717154
102.8609963523853
100.99744885568272
100.32609973862667
100.10385681069909
100.0352698893145
100.01530419752692
100.0097700528157
100.0082983909572
100.00792067386344
100.00782670029062
100.00780418641013
100.00780003338241
100.00780415682132
100.00782658301387
100.00792025485151
100.00829697601286
100.00976556354979
100.01529103266414
100.03523460855826
100.1037715479372
100.32591678490412
100.99709867558758
102.86040794044311
107.53351916482556
117.92773646857394
138.0804015321771
171.74175071134138
171.7628353565427
138.1019375907885
117.94923397292571
107.55461301170224
102.88097632312787
101.01721634945808
100.34572175552634
100.12339983747266
100.05477760059718
100.03479856972088
100.029259992883
100.02778699965334
100.02740891321433
100.02731484346286
100.02729230523309
100.02728814376711
100.02729225435952
100.02731463466576
100.02740813285524
100.02778422191278
100.0292506321178
100.0347691029289
100.05469207095342
100.12317464927773
100.34519515608426
101.01613148094141
102.87902927582036
107.55155331355652
117.94505651034346
138.09697488539481
171.75763913721974
171.8272171978668
138.16803213047012
118.01554639474874
107.62025077546897
102.94569947629157
101.08119982330638
100.40926428460286
100.18673455761255
100.11803240206702
100.09802671149532
100.09248016384663
100.09100498047081
100.09062633188925
100.09053212562182
100.09050955491688
100.09050538217672
100.09050947361732
100.09053178240559
100.09062499963058
100.09100001790722
100.09246252786957
100.09796758248058
100.11784761449123
100.18620506193278
100.40790227972195
101.07812942012166
102.93972430094439
107.61026731444832
118.00127198967958
138.15058456947747
171.80895005339448
172.0244446194641
138.37004270453252
118.21717239598445
107.81883161792143
103.14097835524153
101.27422538460645
100.60114711220692
100.37817049693948
100.30931892475182
100.28926890123148
100.28371032693961
100.2822321089724
100.2818527396183
100.28175837103741
100.28173576448872
100.28173157851535
100.28173564304213
100.28175784876566
100.28185065143262
100.28222403296438
100.2836803087665
100.2891626994632
100.30896502791165
100.37707521172499
100.59806039587879
101.26648874164904
103.12436846947519
107.78869203818601
118.17144496719769
138.31202559569815
171.96315313636984
172.58105491418036
138.93824255282948
118.78041995642162
108.37000623007454
103.68190905591392
101.80933763160671
101.13397003289789
100.91022984396179
100.84115485265995
100.82104537361826
100.81547217695336
100.81399059621008
100.81361049985664
100.81351598554016
100.81349335194986
100.8134891529649
100.81349318026423
100.81351524617061
100.81360748907014
100.8139786069035
100.81542597007382
100.82087458250395
100.8405547876074
100.90824888974016
101.12791973435765
101.79261340637925
103.64123831195519
108.28805845056633
118.64514303040943
138.7582095031971
172.38736936974288
174.00548519832634
140.3869331812608
120.19918811342994
109.74950894715157
105.03386817885892
103.15084788688652
102.47204379360844
102.24732712517897
102.17800102674023
102.15783265592701
102.15224678611929
102.15076270720304
102.15038217155514
102.15028760489794
102.15026498006878
102.15026077214546
102.1502647415361
102.15028662378408
102.15037816717576
102.15074644802556
102.15218236959414
102.1575864219854
102.17709970194105
102.24419710442264
102.46185792935881
103.12025954887632
104.95125236781439
109.55428536982836
119.84013956412439
139.86806712885297
173.437734331489
177.28245584597676
143.66193751813083
123.36813650971038
112.79028518817209
108.03427558818295
106.13849327055317
105.45632571616777
105.23081265338003
105.16132296872897
105.14112687970844
105.13553790238947
105.13405396213334
105.133673651478
105.13357925993586
105.1335567426222
105.13355253365569
105.13355638679108
105.13357800445453
105.13366876263268
105.13403376058262
105.13545648544174
105.14080815696794
105.1601220749575
105.2264894020944
105.44159675137149
106.09157786757042
107.89647369015482
112.42745710079467
122.51765943448095
142.31958303422542
175.70002933989622
183.83337349959368
150.32313688171647
129.33219491616086
118.64243367393422
113.85337900935556
111.95119938736272
111.26808892765447
111.04260146778726
110.97319712801966
110.95304308502439
110.94746989813054
110.94599042333003
110.94561110710252
110.9455175591079
110.94549557935692
110.94549101358874
110.94549474294887
110.94551608758293
110.9456055963337
110.94596767819127
110.94737597253324
110.95267281261503
110.9717760620104
111.0373753256174
111.24979085739788
111.89075553824628
113.66724641600008
118.1108014275371
127.9698361991747
146.83375985767174
179.965641941403
198.89810453923522
160.0011133805883
139.0864414849814
128.38287549131869
123.61255073488105
121.7197899222342
121.04070665689395
120.81668961840784
120.74774810563514
120.72774537475445
120.72222021631141
120.7207415333838
120.72036528231304
120.7202792619292
120.7202540899122
120.72024946618575
120.72025328677944
120.72027427404073
120.72036292752384
120.72071791818915
120.72212099197294
120.72735492415477
120.74626340106573
120.81115137015303
121.02116643788659
121.65448211851061
123.40773995322371
127.78767468007666
137.4471078549143
156.02843443144738
183.0064277316235
