# vtk DataFile Version 2.0
Unstructured Grid Example
ASCII
DATASET UNSTRUCTURED_GRID

POINTS 961 float
0.100000001 0.00499999989 0
0.0966666639 0.00499999989 0
0.0933333337 0.00499999989 0
0.0900000036 0.00499999989 0
0.086666666 0.00499999989 0
0.0833333358 0.00499999989 0
0.0799999982 0.00499999989 0
0.0766666681 0.00499999989 0
0.0733333305 0.00499999989 0
0.0700000003 0.00499999989 0
0.0666666701 0.00499999989 0
0.0633333325 0.00499999989 0
0.0599999987 0.00499999989 0
0.0566666685 0.00499999989 0
0.0533333346 0.00499999989 0
0.0500000007 0.00499999989 0
0.0466666669 0.00499999989 0
0.043333333 0.00499999989 0
0.0399999991 0.00499999989 0
0.0366666652 0.00499999989 0
0.0333333351 0.00499999989 0
0.0299999993 0.00499999989 0
0.0266666673 0.00499999989 0
0.0233333334 0.00499999989 0
0.0199999996 0.00499999989 0
0.0166666675 0.00499999989 0
0.0133333337 0.00499999989 0
0.00999999978 0.00499999989 0
0.00666666683 0.00499999989 0
0.00333333341 0.00499999989 0
0 0.00499999989 0
0.100000001 0.00166666671 0
0.0966666639 0.00166666671 0
0.0933333337 0.00166666671 0
0.0900000036 0.00166666671 0
0.086666666 0.00166666671 0
0.0833333358 0.00166666671 0
0.0799999982 0.00166666671 0
0.0766666681 0.00166666671 0
0.0733333305 0.00166666671 0
0.0700000003 0.00166666671 0
0.0666666701 0.00166666671 0
0.0633333325 0.00166666671 0
0.0599999987 0.00166666671 0
0.0566666685 0.00166666671 0
0.0533333346 0.00166666671 0
0.0500000007 0.00166666671 0
0.0466666669 0.00166666671 0
0.043333333 0.00166666671 0
0.0399999991 0.00166666671 0
0.0366666652 0.00166666671 0
0.0333333351 0.00166666671 0
0.0299999993 0.00166666671 0
0.0266666673 0.00166666671 0
0.0233333334 0.00166666671 0
0.0199999996 0.00166666671 0
0.0166666675 0.00166666671 0
0.0133333337 0.00166666671 0
0.00999999978 0.00166666671 0
0.00666666683 0.00166666671 0
0.00333333341 0.00166666671 0
0 0.00166666671 0
0.100000001 -0.00166666671 0
0.0966666639 -0.00166666671 0
0.0933333337 -0.00166666671 0
0.0900000036 -0.00166666671 0
0.086666666 -0.00166666671 0
0.0833333358 -0.00166666671 0
0.0799999982 -0.00166666671 0
0.0766666681 -0.00166666671 0
0.0733333305 -0.00166666671 0
0.0700000003 -0.00166666671 0
0.0666666701 -0.00166666671 0
0.0633333325 -0.00166666671 0
0.0599999987 -0.00166666671 0
0.0566666685 -0.00166666671 0
0.0533333346 -0.00166666671 0
0.0500000007 -0.00166666671 0
0.0466666669 -0.00166666671 0
0.043333333 -0.00166666671 0
0.0399999991 -0.00166666671 0
0.0366666652 -0.00166666671 0
0.0333333351 -0.00166666671 0
0.0299999993 -0.00166666671 0
0.0266666673 -0.00166666671 0
0.0233333334 -0.00166666671 0
0.0199999996 -0.00166666671 0
0.0166666675 -0.00166666671 0
0.0133333337 -0.00166666671 0
0.00999999978 -0.00166666671 0
0.00666666683 -0.00166666671 0
0.00333333341 -0.00166666671 0
0 -0.00166666671 0
0.100000001 -0.00499999989 0
0.0966666639 -0.00499999989 0
0.0933333337 -0.00499999989 0
0.0900000036 -0.00499999989 0
0.086666666 -0.00499999989 0
0.0833333358 -0.00499999989 0
0.0799999982 -0.00499999989 0
0.0766666681 -0.00499999989 0
0.0733333305 -0.00499999989 0
0.0700000003 -0.00499999989 0
0.0666666701 -0.00499999989 0
0.0633333325 -0.00499999989 0
0.0599999987 -0.00499999989 0
0.0566666685 -0.00499999989 0
0.0533333346 -0.00499999989 0
0.0500000007 -0.00499999989 0
0.0466666669 -0.00499999989 0
0.043333333 -0.00499999989 0
0.0399999991 -0.00499999989 0
0.0366666652 -0.00499999989 0
0.0333333351 -0.00499999989 0
0.0299999993 -0.00499999989 0
0.0266666673 -0.00499999989 0
0.0233333334 -0.00499999989 0
0.0199999996 -0.00499999989 0
0.0166666675 -0.00499999989 0
0.0133333337 -0.00499999989 0
0.00999999978 -0.00499999989 0
0.00666666683 -0.00499999989 0
0.00333333341 -0.00499999989 0
0 -0.00499999989 0
0.100000001 -0.00833333377 0
0.0966666639 -0.00833333377 0
0.0933333337 -0.00833333377 0
0.0900000036 -0.00833333377 0
0.086666666 -0.00833333377 0
0.0833333358 -0.00833333377 0
0.0799999982 -0.00833333377 0
0.0766666681 -0.00833333377 0
0.0733333305 -0.00833333377 0
0.0700000003 -0.00833333377 0
0.0666666701 -0.00833333377 0
0.0633333325 -0.00833333377 0
0.0599999987 -0.00833333377 0
0.0566666685 -0.00833333377 0
0.0533333346 -0.00833333377 0
0.0500000007 -0.00833333377 0
0.0466666669 -0.00833333377 0
0.043333333 -0.00833333377 0
0.0399999991 -0.00833333377 0
0.0366666652 -0.00833333377 0
0.0333333351 -0.00833333377 0
0.0299999993 -0.00833333377 0
0.0266666673 -0.00833333377 0
0.0233333334 -0.00833333377 0
0.0199999996 -0.00833333377 0
0.0166666675 -0.00833333377 0
0.0133333337 -0.00833333377 0
0.00999999978 -0.00833333377 0
0.00666666683 -0.00833333377 0
0.00333333341 -0.00833333377 0
0 -0.00833333377 0
0.100000001 -0.0116666667 0
0.0966666639 -0.0116666667 0
0.0933333337 -0.0116666667 0
0.0900000036 -0.0116666667 0
0.086666666 -0.0116666667 0
0.0833333358 -0.0116666667 0
0.0799999982 -0.0116666667 0
0.0766666681 -0.0116666667 0
0.0733333305 -0.0116666667 0
0.0700000003 -0.0116666667 0
0.0666666701 -0.0116666667 0
0.0633333325 -0.0116666667 0
0.0599999987 -0.0116666667 0
0.0566666685 -0.0116666667 0
0.0533333346 -0.0116666667 0
0.0500000007 -0.0116666667 0
0.0466666669 -0.0116666667 0
0.043333333 -0.0116666667 0
0.0399999991 -0.0116666667 0
0.0366666652 -0.0116666667 0
0.0333333351 -0.0116666667 0
0.0299999993 -0.0116666667 0
0.0266666673 -0.0116666667 0
0.0233333334 -0.0116666667 0
0.0199999996 -0.0116666667 0
0.0166666675 -0.0116666667 0
0.0133333337 -0.0116666667 0
0.00999999978 -0.0116666667 0
0.00666666683 -0.0116666667 0
0.00333333341 -0.0116666667 0
0 -0.0116666667 0
0.100000001 -0.0149999997 0
0.0966666639 -0.0149999997 0
0.0933333337 -0.0149999997 0
0.0900000036 -0.0149999997 0
0.086666666 -0.0149999997 0
0.0833333358 -0.0149999997 0
0.0799999982 -0.0149999997 0
0.0766666681 -0.0149999997 0
0.0733333305 -0.0149999997 0
0.0700000003 -0.0149999997 0
0.0666666701 -0.0149999997 0
0.0633333325 -0.0149999997 0
0.0599999987 -0.0149999997 0
0.0566666685 -0.0149999997 0
0.0533333346 -0.0149999997 0
0.0500000007 -0.0149999997 0
0.0466666669 -0.0149999997 0
0.043333333 -0.0149999997 0
0.0399999991 -0.0149999997 0
0.0366666652 -0.0149999997 0
0.0333333351 -0.0149999997 0
0.0299999993 -0.0149999997 0
0.0266666673 -0.0149999997 0
0.0233333334 -0.0149999997 0
0.0199999996 -0.0149999997 0
0.0166666675 -0.0149999997 0
0.0133333337 -0.0149999997 0
0.00999999978 -0.0149999997 0
0.00666666683 -0.0149999997 0
0.00333333341 -0.0149999997 0
0 -0.0149999997 0
0.100000001 -0.0183333326 0
0.0966666639 -0.0183333326 0
0.0933333337 -0.0183333326 0
0.0900000036 -0.0183333326 0
0.086666666 -0.0183333326 0
0.0833333358 -0.0183333326 0
0.0799999982 -0.0183333326 0
0.0766666681 -0.0183333326 0
0.0733333305 -0.0183333326 0
0.0700000003 -0.0183333326 0
0.0666666701 -0.0183333326 0
0.0633333325 -0.0183333326 0
0.0599999987 -0.0183333326 0
0.0566666685 -0.0183333326 0
0.0533333346 -0.0183333326 0
0.0500000007 -0.0183333326 0
0.0466666669 -0.0183333326 0
0.043333333 -0.0183333326 0
0.0399999991 -0.0183333326 0
0.0366666652 -0.0183333326 0
0.0333333351 -0.0183333326 0
0.0299999993 -0.0183333326 0
0.0266666673 -0.0183333326 0
0.0233333334 -0.0183333326 0
0.0199999996 -0.0183333326 0
0.0166666675 -0.0183333326 0
0.0133333337 -0.0183333326 0
0.00999999978 -0.0183333326 0
0.00666666683 -0.0183333326 0
0.00333333341 -0.0183333326 0
0 -0.0183333326 0
0.100000001 -0.0216666665 0
0.0966666639 -0.0216666665 0
0.0933333337 -0.0216666665 0
0.0900000036 -0.0216666665 0
0.086666666 -0.0216666665 0
0.0833333358 -0.0216666665 0
0.0799999982 -0.0216666665 0
0.0766666681 -0.0216666665 0
0.0733333305 -0.0216666665 0
0.0700000003 -0.0216666665 0
0.0666666701 -0.0216666665 0
0.0633333325 -0.0216666665 0
0.0599999987 -0.0216666665 0
0.0566666685 -0.0216666665 0
0.0533333346 -0.0216666665 0
0.0500000007 -0.0216666665 0
0.0466666669 -0.0216666665 0
0.043333333 -0.0216666665 0
0.0399999991 -0.0216666665 0
0.0366666652 -0.0216666665 0
0.0333333351 -0.0216666665 0
0.0299999993 -0.0216666665 0
0.0266666673 -0.0216666665 0
0.0233333334 -0.0216666665 0
0.0199999996 -0.0216666665 0
0.0166666675 -0.0216666665 0
0.0133333337 -0.0216666665 0
0.00999999978 -0.0216666665 0
0.00666666683 -0.0216666665 0
0.00333333341 -0.0216666665 0
0 -0.0216666665 0
0.100000001 -0.0250000004 0
0.0966666639 -0.0250000004 0
0.0933333337 -0.0250000004 0
0.0900000036 -0.0250000004 0
0.086666666 -0.0250000004 0
0.0833333358 -0.0250000004 0
0.0799999982 -0.0250000004 0
0.0766666681 -0.0250000004 0
0.0733333305 -0.0250000004 0
0.0700000003 -0.0250000004 0
0.0666666701 -0.0250000004 0
0.0633333325 -0.0250000004 0
0.0599999987 -0.0250000004 0
0.0566666685 -0.0250000004 0
0.0533333346 -0.0250000004 0
0.0500000007 -0.0250000004 0
0.0466666669 -0.0250000004 0
0.043333333 -0.0250000004 0
0.0399999991 -0.0250000004 0
0.0366666652 -0.0250000004 0
0.0333333351 -0.0250000004 0
0.0299999993 -0.0250000004 0
0.0266666673 -0.0250000004 0
0.0233333334 -0.0250000004 0
0.0199999996 -0.0250000004 0
0.0166666675 -0.0250000004 0
0.0133333337 -0.0250000004 0
0.00999999978 -0.0250000004 0
0.00666666683 -0.0250000004 0
0.00333333341 -0.0250000004 0
0 -0.0250000004 0
0.100000001 -0.0283333343 0
0.0966666639 -0.0283333343 0
0.0933333337 -0.0283333343 0
0.0900000036 -0.0283333343 0
0.086666666 -0.0283333343 0
0.0833333358 -0.0283333343 0
0.0799999982 -0.0283333343 0
0.0766666681 -0.0283333343 0
0.0733333305 -0.0283333343 0
0.0700000003 -0.0283333343 0
0.0666666701 -0.0283333343 0
0.0633333325 -0.0283333343 0
0.0599999987 -0.0283333343 0
0.0566666685 -0.0283333343 0
0.0533333346 -0.0283333343 0
0.0500000007 -0.0283333343 0
0.0466666669 -0.0283333343 0
0.043333333 -0.0283333343 0
0.0399999991 -0.0283333343 0
0.0366666652 -0.0283333343 0
0.0333333351 -0.0283333343 0
0.0299999993 -0.0283333343 0
0.0266666673 -0.0283333343 0
0.0233333334 -0.0283333343 0
0.0199999996 -0.0283333343 0
0.0166666675 -0.0283333343 0
0.0133333337 -0.0283333343 0
0.00999999978 -0.0283333343 0
0.00666666683 -0.0283333343 0
0.00333333341 -0.0283333343 0
0 -0.0283333343 0
0.100000001 -0.0316666663 0
[...]
POINT_DATA 961
SCALARS Temp float 1
LOOKUP_TABLE default
238.6070902513411
207.15514599699887
188.36189020605389
178.69534449558512
174.36399965292443
172.64350529658552
172.026251972027
171.82279119787447
171.7602730886037
171.7421529871612
171.73715198082468
171.73582770826812
171.73548922343804
171.73540534884592
171.7353853318176
171.73538165500236
171.73538533181153
171.73540534881897
171.73548922352646
171.73582770866065
171.73715197620336
171.74215298608465
171.76027310498915
171.82279112287625
172.02625212234665
172.64350398881686
174.36399898736633
178.69533558062417
188.36188253950064
207.15516432483483
238.60706481577853
207.15522933291007
174.67183466406306
155.2579616912955
145.26929940649958
140.79216586403035
139.01317562942648
138.3747358558451
138.16423085394067
138.0995313799794
138.08077464947
138.07559685260034
138.07422550736823
138.07387493122425
138.07378804715677
138.0737673090918
138.07376349946497
138.0737673090855
138.0737880471285
138.07387493131398
138.0742255077658
138.07559684777578
138.08077464818427
138.09953139621763
138.16423077339678
138.37473599981882
139.01317423298596
140.7921650203687
145.26928958502657
155.2579521651249
174.6718357944734
207.155167803205
188.36196257902478
155.2579607794992
135.46315866366479
125.27158053921424
120.69992943238172
118.88190963493292
118.22894806323163
118.01349583010654
117.94723090918345
117.92800851483548
117.92269921231731
117.92129232756331
117.92093250116274
117.9208432874748
117.92082198548279
117.92081807122516
117.92082198547595
117.9208432874447
117.9209325012492
117.92129232794662
117.92269920726106
117.92800851305488
117.94723092389434
118.01349573992904
118.2289481807538
118.88190809818953
120.69992818449937
125.27156926691877
135.463144342868
155.25795172953943
188.36188499840753
178.6954185996287
145.26930227526407
125.27158587624669
114.9681490384063
110.34233641765488
108.50105266015416
107.8391056228356
107.62048653815017
107.55318886248342
107.53365100719452
107.52825051992887
107.526818483002
107.5264519906246
107.52636107107531
107.52633935037029
107.52633535766437
107.52633935036302
107.52636107104276
107.526451990705
107.52681848335783
107.52825051463594
107.53365100476076
107.55318887490128
107.62048643678635
107.83910570570563
108.50105097638071
110.34233474827612
114.96813641307205
125.27156859298925
145.26928838907344
178.6953351900717
174.36408645092666
140.79218051910095
120.6999465748608
110.34234839163896
105.68909981964534
103.83545857708013
103.16851234173996
102.94805403771365
102.88013297098306
102.86039808563461
102.85493891125998
102.85349025354454
102.85311925264187
102.85302715541015
102.85300514045879
102.85300109193757
102.853005140451
102.85302715537527
102.85311925271473
102.85349025386758
102.85493890575223
102.86039808254255
102.8801329810483
102.94805392630336
103.16851239341146
103.83545677960873
105.68909784612174
110.34233499840138
120.69992789744686
140.7921647362227
174.36400079014226
172.64359770385462
139.01319163129
118.88192749565523
108.50106529383808
103.83545923526904
101.97595568214889
101.30650992453974
101.0850846545222
101.01682035180535
100.9969723936882
100.99147827970098
100.99001940073975
100.98964554677936
100.98955268523203
100.98953047510648
100.98952638899905
100.98953047509823
100.98955268519512
100.98964554684488
100.99001940103176
100.991478274021
100.99697239004858
101.01682035996251
101.08508453577437
101.30650995461178
101.97595381577592
103.83545710197802
108.50105155519911
118.88190827029234
139.01317516135128
172.6435112473704
172.0263455396978
138.37475298432685
118.2289672626784
107.83911978340738
103.1685146047324
101.30651155899085
100.63593937763241
100.41405369388936
100.3456172147865
100.32570975732708
100.32019644970438
100.31873173652671
100.31835619775657
100.31826287107616
100.3182405390524
100.31823642904573
100.3182405390438
100.31826287103749
100.31835619781597
100.31873173679381
100.3201964439021
100.32570975330069
100.34561722166148
100.41405357068871
100.63593939563066
101.30650965912358
103.16851240274927
107.83910591245792
118.22894784464138
138.37473628705487
172.02625882215264
171.82287816454132
138.1642458551229
118.01351433373907
107.62050043136912
102.9480561545559
101.08508617847703
100.4140535905942
100.19196871989455
100.12345347745934
100.10351732826976
100.09799430576689
100.0965265075094
100.09615004223123
100.09605645069207
100.0960340471344
100.09602992280989
100.09603404712564
100.09605645065216
100.09615004228611
100.09652650775934
100.0979942998876
100.10351732400781
100.12345348360466
100.19196859440945
100.41405360299484
101.08508426480633
102.94805392703819
107.62048651510052
118.01349485384665
138.16422908799336
171.82279136722596
171.7603534570044
138.09954467628708
117.94724905171203
107.55320272495737
102.88013515434196
101.01682197220136
100.34561721621908
100.12345358417386
100.05490537454754
100.03495652999626
100.02942897738129
100.02795966926125
100.02758273019637
100.02748899777451
100.02746655484525
100.02746242245391
100.02746655483615
100.02748899773366
100.0275827302484
100.02795966950049
100.0294289714588
100.03495652560935
100.05490538033575
100.12345345768168
100.34561722638152
101.01682005352183
102.8801329182946
107.55318879446179
117.94722955334404
138.09952788900858
171.76026663673682
171.74223390383403
138.08078846559445
117.92802665084145
107.53366481687583
102.86040022838195
100.99697398446034
100.32570973357086
100.1035174111583
100.03495650640585
100.01500249069888
100.00947298913708
100.00800299698581
100.00762583276484
100.00753203041805
100.00750956719295
100.0075054305343
100.00750956718372
100.00753203037674
100.00762583281505
100.00800299721897
100.00947298319271
100.0150024862531
100.03495651204054
100.10351728427382
100.32570974293598
100.99697206413106
102.86039798971025
107.53365088220815
117.928007147269
138.0807716728005
171.74214707728385
171.7372436038178
138.0756122458068
117.92271762263299
107.5282643656419
102.85494105702975
100.99147987170201
100.32019642772521
100.09799439067007
100.02942895582284
100.00947299115461
100.00394271356832
100.00247243410483
100.00209517040618
100.00200133568671
100.00197886267107
100.00197472389554
100.00197886266163
100.00200133564479
100.00209517045487
100.0024724343341
100.00394270761252
100.00947298668177
100.029428961395
100.09799426364233
100.32019643682338
100.99147795085935
102.85493881758885
107.52825042980164
117.92269811764687
138.07559545155314
171.73715677559377
171.73591990578262
138.07424099422616
117.92131077087095
107.52683234723828
102.85349241269817
100.99002100033897
100.31873171921336
100.096526595927
100.02795965082592
100.00800300200642
100.00247243707518
100.00100204538707
100.00062474076134
100.00053089205427
100.00050841461996
100.00050427486013
100.00050841461005
100.00053089201111
100.00062474080727
100.00100204561066
100.0024724311079
100.00800299751175
100.0279596563578
100.09652646882535
100.31873172819168
100.99001907929703
102.85349017298138
107.52681841100944
117.92129126543317
138.07422419951124
171.735833077046
171.73557078522646
138.07388894438296
117.9209507228484
107.52646587248725
102.85312142893136
100.98964714814966
100.31835617439518
100.09615012179904
100.02758270203513
100.0076258277998
100.00209516331263
100.00062473067423
100.00024741032094
100.00015355596317
100.00013107666118
100.00012693647183
100.00013107664954
100.00015355591574
100.00024741035803
100.00062473088025
100.00209515731251
100.00762582324813
100.02758270747346
100.0961499945516
100.31835618316182
100.98964522681302
102.85311918883616
107.52645193579212
117.92093121688416
138.07387214911324
171.73548395593764
171.73548582694494
138.07380136169562
117.92086174143542
107.52637506022391
102.85302934788561
100.98955426175515
100.31826280852488
100.09605648654072
100.02748892450656
100.00753197989907
100.00200128287604
100.00053083618275
100.0001535101515
100.0000596536483
100.0000371736033
100.0000330332365
100.00003717358634
100.00005965358656
100.00015351015657
100.00053083632336
100.0020012767515
100.00753197512606
100.02748892957639
100.09605635871785
100.3182628164493
100.98955233926037
102.85302710629736
107.52636112171881
117.92084223341575
138.07378456423996
171.73539899548095
171.73546958614503
138.07378407849984
117.92084123001864
107.52635344660429
102.85300722270969
100.98953187685771
100.31824028231114
100.09603388266927
100.0274662790866
100.00750931327362
100.00197860602864
100.00050815470178
100.00013082669851
100.00003696940875
100.00001448907581
100.00001034863402
100.00001448904158
100.00003696929872
100.00013082659143
100.00050815460335
100.00197859943049
100.00750930762693
100.02746628265383
100.09603375243515
100.31824028662113
100.98952994929735
102.85300497448218
107.52633949995865
117.92082171266823
138.07376727105762
171.73538274471971
171.73548737618944
138.07378329594897
117.92083752139558
107.52634887191833
102.85300238265879
100.98952693623579
100.31823529565888
100.09602887215154
100.0274612556445
100.00750428291157
100.00197357210617
100.00050311904297
100.0001257902424
100.00003193260919
100.00000945213874
100.00000531164876
100.000009452052
100.00003193234636
100.00012578976161
100.00050311810647
100.0019735637687
100.00750427391851
100.02746125323894
100.09602873201626
100.3182352847092
100.98952498678952
102.85300010520143
107.526334888911
117.92081796192944
138.07376644315107
171.73540048942843
171.7354877764251
138.07378370057808
117.92083791257846
107.52634923947286
102.8530027263943
100.98952725962945
100.31823560349592
100.09602916835489
100.02746154369444
100.00750456570293
100.00197385179835
100.00050339706844
100.00012606744907
100.0000322094467
100.00000972881892
100.00000558825326
100.00000972858362
100.0000322087296
100.00012606579199
100.00050339334113
100.00197383735546
100.00750454439053
100.02746151834863
100.09602898875983
100.31823552977673
100.98952521774541
102.85300032280749
107.52633509694319
117.92081816614778
138.07376664495843
171.73540068655325
171.73547162922253
138.07378614920657
117.92084322418896
107.52635532458952
102.85300897773064
100.98953352922351
100.31824185149128
100.09603538908858
100.02746774219074
100.00751074922542
100.00198002653306
100.00050956722043
100.00013223545649
100.00003837654367
100.00001589555086
100.00001175480664
100.00001589492547
100.00003837456921
100.0001322303335
100.0005095547396
100.00197999177368
100.00751068463416
100.02746763225079
100.09603505767727
100.31824152734144
100.98953110717561
102.85300604251535
107.52634049679983
117.92082266366589
138.07376820318484
171.73538364523026
171.7354937182088
138.07380928008186
117.92086940054216
107.52638222166507
102.85303605031031
100.98956054125986
100.31826873616983
100.09606215201279
100.02749441512583
100.00753736580944
100.00200661230426
100.00053613807505
100.00015879985966
100.00006493842501
100.00004245650351
100.0000383153356
100.00004245493328
100.00006493323394
100.00015878526685
100.0005360999929
100.00200651406497
100.00753715739019
100.02749400794144
100.09606126034504
100.31826744811293
100.98955660356737
102.85303093440012
107.52636452059909
117.9208453727219
138.07378750580276
171.7354018775538
171.73559927464527
138.07391831297718
117.92097832586603
107.52649181912292
102.85314549372694
100.98966942374942
100.3183769818553
100.09616987482622
100.02760178515369
100.00764453194851
100.00211367562108
100.00064315564545
100.00026579928758
100.00017193134714
100.00014944722537
100.0001453051268
100.0001494435535
100.00017191860074
100.0002657609169
100.00064304849812
100.00211339324875
100.00764387620474
100.02760039221967
100.09616701605688
100.31837213870983
100.9896596608303
102.8531317124951
107.52646240353425
117.92093990090282
138.07388046658542
171.7354911821616
171.73602657870507
138.07434027199307
117.9214063765871
107.5269209634953
102.85357291078518
100.99009393305866
100.31879869397021
100.09658950477785
100.0280201255734
100.0080621887382
100.00253101755072
100.00106036999864
100.00068296751762
100.00058908440671
100.00056659555364
100.00056245158703
100.00056658759725
100.00058905543713
100.00068287468076
100.00106009282531
100.00253024560453
100.00806024792018
100.02801568432041
100.09658014346803
100.31878139582331
100.99006274055645
102.85352596619336
107.52684532906233
117.92130990585483
138.0742367775223
171.73585181084687
171.73755937577084
138.0759382929142
117.92302531413291
107.52854090244658
102.85518268761304
100.99169049624831
100.32038391435006
100.09816703397496
100.02959331352992
100.00963329060818
100.00410125181806
100.00263028664207
100.00225277951512
100.00215886473251
100.0021363667189
100.00213221934054
100.00213635076916
100.00215880400881
100.00225257344569
100.00262963070489
100.00409930196945
100.00962799058753
100.029580214529
100.09813770766435
100.3203256406777
100.99158454616224
102.85501441731662
107.5282898662345
117.92270275667437
138.07557506823653
171.73711942073552
171.74320790442025
138.08175462589585
117.92890439160537
107.53440546717151
102.8609963523853
100.99744885568266
100.32609973862658
100.10385681069907
100.03526988931448
100.01530419752682
100.00977005281567
100.00829839095717
100.00792067386338
100.00782670029048
100.00780418641013
100.00780003338235
100.00780415682125
100.00782658301377
100.00792025485143
100.00829697601274
100.0097655635497
100.01529103266411
100.03523460855833
100.10377154793731
100.3259167849042
100.99709867558762
102.86040794044318
107.53351916482562
117.92773646857401
138.0804015321772
171.7417507113415
171.76283535654272
138.10193759078848
117.94923397292577
107.55461301170224
102.88097632312781
101.01721634945804
100.34572175552626
100.12339983747269
100.05477760059716
100.03479856972083
100.02925999288293
100.02778699965326
100.02740891321427
100.0273148434628
100.02729230523305
100.02728814376704
100.02729225435944
100.02731463466563
100.02740813285513
100.02778422191265
100.0292506321177
100.03476910292889
100.05469207095348
100.12317464927783
100.34519515608434
101.01613148094143
102.87902927582036
107.55155331355658
117.94505651034348
138.09697488539487
171.75763913721994
171.82721719786682
138.1680321304701
118.01554639474877
107.62025077546897
102.94569947629151
101.08119982330626
100.40926428460278
100.18673455761251
100.11803240206706
100.0980267114953
100.09248016384659
100.0910049804708
100.09062633188925
100.09053212562176
100.0905095549169
100.09050538217662
100.09050947361726
100.09053178240558
100.0906249996305
100.09100001790708
100.09246252786956
100.09796758248056
100.11784761449127
100.18620506193284
100.407902279722
101.07812942012171
102.93972430094443
107.61026731444836
118.00127198967958
138.15058456947753
171.8089500533946
172.0244446194641
138.37004270453258
118.21717239598448
107.81883161792138
103.14097835524143
101.27422538460634
100.60114711220679
100.3781704969395
100.30931892475185
100.28926890123152
100.28371032693961
100.28223210897244
100.28185273961837
100.2817583710374
100.28173576448864
100.28173157851532
100.28173564304205
100.28175784876557
100.28185065143258
100.28222403296434
100.2836803087665
100.28916269946325
100.30896502791174
100.37707521172513
100.5980603958789
101.26648874164914
103.12436846947526
107.78869203818606
118.17144496719773
138.31202559569812
171.96315313636975
172.5810549141803
138.9382425528295
118.78041995642158
108.37000623007451
103.68190905591388
101.80933763160665
101.13397003289782
100.9102298439618
100.84115485265995
100.82104537361826
100.81547217695336
100.8139905962101
100.81361049985667
100.8135159855402
100.81349335194979
100.81348915296482
100.81349318026422
100.81351524617051
100.81360748907012
100.81397860690353
100.81542597007389
100.8208745825039
100.84055478760743
100.90824888974026
101.12791973435773
101.79261340637933
103.6412383119552
108.28805845056637
118.64514303040944
138.75820950319707
172.38736936974283
174.0054851983264
140.38693318126076
120.19918811342993
109.74950894715153
105.03386817885895
103.1508478868865
102.47204379360838
102.24732712517888
102.17800102674019
102.15783265592698
102.15224678611926
102.15076270720306
102.15038217155518
102.15028760489795
102.15026498006871
102.15026077214546
102.15026474153605
102.15028662378417
102.15037816717576
102.15074644802554
102.15218236959416
102.15758642198547
102.17709970194109
102.24419710442267
102.46185792935887
103.12025954887638
104.95125236781442
109.55428536982832
119.8401395641244
139.86806712885294
173.43773433148903
177.2824558459768
143.66193751813083
123.3681365097104
112.79028518817216
108.03427558818296
106.13849327055317
105.45632571616773
105.23081265338001
105.16132296872895
105.14112687970845
105.13553790238944
105.1340539621334
105.13367365147805
105.13357925993584
105.13355674262219
105.13355253365569
105.13355638679108
105.13357800445452
105.1336687626327
105.13403376058264
105.1354564854418
105.14080815696795
105.16012207495754
105.22648940209443
105.4415967513715
106.09157786757046
107.8964736901548
112.42745710079473
122.51765943448096
142.31958303422542
175.70002933989613
183.8333734995937
150.32313688171652
129.33219491616094
118.64243367393424
113.85337900935555
111.95119938736272
111.26808892765445
111.04260146778716
110.9731971280196
110.95304308502433
110.94746989813054
110.94599042333004
110.94561110710251
110.94551755910793
110.94549557935699
110.94549101358875
110.94549474294891
110.94551608758299
110.94560559633373
110.94596767819132
110.9473759725332
110.95267281261506
110.97177606201039
111.03737532561748
111.2497908573979
111.89075553824632
113.66724641600011
118.11080142753711
127.9698361991747
146.83375985767168
179.96564194140294
198.89810453923525
160.00111338058832
139.0864414849815
128.38287549131877
123.61255073488107
121.71978992223423
121.04070665689392
120.81668961840776
120.74774810563503
120.72774537475438
120.72222021631138
120.72074153338382
120.72036528231303
120.72027926192929
120.72025408991222
120.72024946618576
120.72025328677948
120.72027427404078
120.72036292752382
120.7207179181892
120.72212099197294
120.72735492415471
120.74626340106568
120.811151370153
121.02116643788662
121.65448211851064
123.40773995322373
127.78767468007666
137.44710785491435
156.02843443144727
183.00642773162335
