# vtk DataFile Version 2.0
Unstructured Grid Example
ASCII
DATASET UNSTRUCTURED_GRID

POINTS 961 float
0.100000001 0.00499999989 0
0.0966666639 0.00499999989 0
0.0933333337 0.00499999989 0
0.0900000036 0.00499999989 0
0.086666666 0.00499999989 0
0.0833333358 0.00499999989 0
0.0799999982 0.00499999989 0
0.0766666681 0.00499999989 0
0.0733333305 0.00499999989 0
0.0700000003 0.00499999989 0
0.0666666701 0.00499999989 0
0.0633333325 0.00499999989 0
0.0599999987 0.00499999989 0
0.0566666685 0.00499999989 0
0.0533333346 0.00499999989 0
0.0500000007 0.00499999989 0
0.0466666669 0.00499999989 0
0.043333333 0.00499999989 0
0.0399999991 0.00499999989 0
0.0366666652 0.00499999989 0
0.0333333351 0.00499999989 0
0.0299999993 0.00499999989 0
0.0266666673 0.00499999989 0
0.0233333334 0.00499999989 0
0.0199999996 0.00499999989 0
0.0166666675 0.00499999989 0
0.0133333337 0.00499999989 0
0.00999999978 0.00499999989 0
0.00666666683 0.00499999989 0
0.00333333341 0.00499999989 0
0 0.00499999989 1
0.100000001 0.00166666671 0
0.0966666639 0.00166666671 0
0.0933333337 0.00166666671 0
0.0900000036 0.00166666671 0
0.086666666 0.00166666671 0
0.0833333358 0.00166666671 0
0.0799999982 0.00166666671 0
0.0766666681 0.00166666671 0
0.0733333305 0.00166666671 0
0.0700000003 0.00166666671 0
0.0666666701 0.00166666671 0
0.0633333325 0.00166666671 0
0.0599999987 0.00166666671 0
0.0566666685 0.00166666671 0
0.0533333346 0.00166666671 0
0.0500000007 0.00166666671 0
0.0466666669 0.00166666671 0
0.043333333 0.00166666671 0
0.0399999991 0.00166666671 0
0.0366666652 0.00166666671 0
0.0333333351 0.00166666671 0
0.0299999993 0.00166666671 0
0.0266666673 0.00166666671 0
0.0233333334 0.00166666671 0
0.0199999996 0.00166666671 0
0.0166666675 0.00166666671 0
0.0133333337 0.00166666671 0
0.00999999978 0.00166666671 0
0.00666666683 0.00166666671 0
0.00333333341 0.00166666671 0
0 0.00166666671 1
0.100000001 -0.00166666671 0
0.0966666639 -0.00166666671 0
0.0933333337 -0.00166666671 0
0.0900000036 -0.00166666671 0
0.086666666 -0.00166666671 0
0.0833333358 -0.00166666671 0
0.0799999982 -0.00166666671 0
0.0766666681 -0.00166666671 0
0.0733333305 -0.00166666671 0
0.0700000003 -0.00166666671 0
0.0666666701 -0.00166666671 0
0.0633333325 -0.00166666671 0
0.0599999987 -0.00166666671 0
0.0566666685 -0.00166666671 0
0.0533333346 -0.00166666671 0
0.0500000007 -0.00166666671 0
0.0466666669 -0.00166666671 0
0.043333333 -0.00166666671 0
0.0399999991 -0.00166666671 0
0.0366666652 -0.00166666671 0
0.0333333351 -0.00166666671 0
0.0299999993 -0.00166666671 0
0.0266666673 -0.00166666671 0
0.0233333334 -0.00166666671 0
0.0199999996 -0.00166666671 0
0.0166666675 -0.00166666671 0
0.0133333337 -0.00166666671 0
0.00999999978 -0.00166666671 0
0.00666666683 -0.00166666671 0
0.00333333341 -0.00166666671 0
0 -0.00166666671 1
0.100000001 -0.00499999989 0
0.0966666639 -0.00499999989 0
0.0933333337 -0.00499999989 0
0.0900000036 -0.00499999989 0
0.086666666 -0.00499999989 0
0.0833333358 -0.00499999989 0
0.0799999982 -0.00499999989 0
0.0766666681 -0.00499999989 0
0.0733333305 -0.00499999989 0
0.0700000003 -0.00499999989 0
0.0666666701 -0.00499999989 0
0.0633333325 -0.00499999989 0
0.0599999987 -0.00499999989 0
0.0566666685 -0.00499999989 0
0.0533333346 -0.00499999989 0
0.0500000007 -0.00499999989 0
0.0466666669 -0.00499999989 0
0.043333333 -0.00499999989 0
0.0399999991 -0.00499999989 0
0.0366666652 -0.00499999989 0
0.0333333351 -0.00499999989 0
0.0299999993 -0.00499999989 0
0.0266666673 -0.00499999989 0
0.0233333334 -0.00499999989 0
0.0199999996 -0.00499999989 0
0.0166666675 -0.00499999989 0
0.0133333337 -0.00499999989 0
0.00999999978 -0.00499999989 0
0.00666666683 -0.00499999989 0
0.00333333341 -0.00499999989 0
0 -0.00499999989 1
0.100000001 -0.00833333377 0
0.0966666639 -0.00833333377 0
0.0933333337 -0.00833333377 0
0.0900000036 -0.00833333377 0
0.086666666 -0.00833333377 0
0.0833333358 -0.00833333377 0
0.0799999982 -0.00833333377 0
0.0766666681 -0.00833333377 0
0.0733333305 -0.00833333377 0
0.0700000003 -0.00833333377 0
0.0666666701 -0.00833333377 0
0.0633333325 -0.00833333377 0
0.0599999987 -0.00833333377 0
0.0566666685 -0.00833333377 0
0.0533333346 -0.00833333377 0
0.0500000007 -0.00833333377 0
0.0466666669 -0.00833333377 0
0.043333333 -0.00833333377 0
0.0399999991 -0.00833333377 0
0.0366666652 -0.00833333377 0
0.0333333351 -0.00833333377 0
0.0299999993 -0.00833333377 0
0.0266666673 -0.00833333377 0
0.0233333334 -0.00833333377 0
0.0199999996 -0.00833333377 0
0.0166666675 -0.00833333377 0
0.0133333337 -0.00833333377 0
0.00999999978 -0.00833333377 0
0.00666666683 -0.00833333377 0
0.00333333341 -0.00833333377 0
0 -0.00833333377 1
0.100000001 -0.0116666667 0
0.0966666639 -0.0116666667 0
0.0933333337 -0.0116666667 0
0.0900000036 -0.0116666667 0
0.086666666 -0.0116666667 0
0.0833333358 -0.0116666667 0
0.0799999982 -0.0116666667 0
0.0766666681 -0.0116666667 0
0.0733333305 -0.0116666667 0
0.0700000003 -0.0116666667 0
0.0666666701 -0.0116666667 0
0.0633333325 -0.0116666667 0
0.0599999987 -0.0116666667 0
0.0566666685 -0.0116666667 0
0.0533333346 -0.0116666667 0
0.0500000007 -0.0116666667 0
0.0466666669 -0.0116666667 0
0.043333333 -0.0116666667 0
0.0399999991 -0.0116666667 0
0.0366666652 -0.0116666667 0
0.0333333351 -0.0116666667 0
0.0299999993 -0.0116666667 0
0.0266666673 -0.0116666667 0
0.0233333334 -0.0116666667 0
0.0199999996 -0.0116666667 0
0.0166666675 -0.0116666667 0
0.0133333337 -0.0116666667 0
0.00999999978 -0.0116666667 0
0.00666666683 -0.0116666667 0
0.00333333341 -0.0116666667 0
0 -0.0116666667 1
0.100000001 -0.0149999997 0
0.0966666639 -0.0149999997 0
0.0933333337 -0.0149999997 0
0.0900000036 -0.0149999997 0
0.086666666 -0.0149999997 0
0.0833333358 -0.0149999997 0
0.0799999982 -0.0149999997 0
0.0766666681 -0.0149999997 0
0.0733333305 -0.0149999997 0
0.0700000003 -0.0149999997 0
0.0666666701 -0.0149999997 0
0.0633333325 -0.0149999997 0
0.0599999987 -0.0149999997 0
0.0566666685 -0.0149999997 0
0.0533333346 -0.0149999997 0
0.0500000007 -0.0149999997 0
0.0466666669 -0.0149999997 0
0.043333333 -0.0149999997 0
0.0399999991 -0.0149999997 0
0.0366666652 -0.0149999997 0
0.0333333351 -0.0149999997 0
0.0299999993 -0.0149999997 0
0.0266666673 -0.0149999997 0
0.0233333334 -0.0149999997 0
0.0199999996 -0.0149999997 0
0.0166666675 -0.0149999997 0
0.0133333337 -0.0149999997 0
0.00999999978 -0.0149999997 0
0.00666666683 -0.0149999997 0
0.00333333341 -0.0149999997 0
0 -0.0149999997 1
0.100000001 -0.0183333326 0
0.0966666639 -0.0183333326 0
0.0933333337 -0.0183333326 0
0.0900000036 -0.0183333326 0
0.086666666 -0.0183333326 0
0.0833333358 -0.0183333326 0
0.0799999982 -0.0183333326 0
0.0766666681 -0.0183333326 0
0.0733333305 -0.0183333326 0
0.0700000003 -0.0183333326 0
0.0666666701 -0.0183333326 0
0.0633333325 -0.0183333326 0
0.0599999987 -0.0183333326 0
0.0566666685 -0.0183333326 0
0.0533333346 -0.0183333326 0
0.0500000007 -0.0183333326 0
0.0466666669 -0.0183333326 0
0.043333333 -0.0183333326 0
0.0399999991 -0.0183333326 0
0.0366666652 -0.0183333326 0
0.0333333351 -0.0183333326 0
0.0299999993 -0.0183333326 0
0.0266666673 -0.0183333326 0
0.0233333334 -0.0183333326 0
0.0199999996 -0.0183333326 0
0.0166666675 -0.0183333326 0
0.0133333337 -0.0183333326 0
0.00999999978 -0.0183333326 0
0.00666666683 -0.0183333326 0
0.00333333341 -0.0183333326 0
0 -0.0183333326 1
0.100000001 -0.0216666665 0
0.0966666639 -0.0216666665 0
0.0933333337 -0.0216666665 0
0.0900000036 -0.0216666665 0
0.086666666 -0.0216666665 0
0.0833333358 -0.0216666665 0
0.0799999982 -0.0216666665 0
0.0766666681 -0.0216666665 0
0.0733333305 -0.0216666665 0
0.0700000003 -0.0216666665 0
0.0666666701 -0.0216666665 0
0.0633333325 -0.0216666665 0
0.0599999987 -0.0216666665 0
0.0566666685 -0.0216666665 0
0.0533333346 -0.0216666665 0
0.0500000007 -0.0216666665 0
0.0466666669 -0.0216666665 0
0.043333333 -0.0216666665 0
0.0399999991 -0.0216666665 0
0.0366666652 -0.0216666665 0
0.0333333351 -0.0216666665 0
0.0299999993 -0.0216666665 0
0.0266666673 -0.0216666665 0
0.0233333334 -0.0216666665 0
0.0199999996 -0.0216666665 0
0.0166666675 -0.0216666665 0
0.0133333337 -0.0216666665 0
0.00999999978 -0.0216666665 0
0.00666666683 -0.0216666665 0
0.00333333341 -0.0216666665 0
0 -0.0216666665 1
0.100000001 -0.0250000004 0
0.0966666639 -0.0250000004 0
0.0933333337 -0.0250000004 0
0.0900000036 -0.0250000004 0
0.086666666 -0.0250000004 0
0.0833333358 -0.0250000004 0
0.0799999982 -0.0250000004 0
0.0766666681 -0.0250000004 0
0.0733333305 -0.0250000004 0
0.0700000003 -0.0250000004 0
0.0666666701 -0.0250000004 0
0.0633333325 -0.0250000004 0
0.0599999987 -0.0250000004 0
0.0566666685 -0.0250000004 0
0.0533333346 -0.0250000004 0
0.0500000007 -0.0250000004 0
0.0466666669 -0.0250000004 0
0.043333333 -0.0250000004 0
0.0399999991 -0.0250000004 0
0.0366666652 -0.0250000004 0
0.0333333351 -0.0250000004 0
0.0299999993 -0.0250000004 0
0.0266666673 -0.0250000004 0
0.0233333334 -0.0250000004 0
0.0199999996 -0.0250000004 0
0.0166666675 -0.0250000004 0
0.0133333337 -0.0250000004 0
0.00999999978 -0.0250000004 0
0.00666666683 -0.0250000004 0
0.00333333341 -0.0250000004 0
0 -0.0250000004 1
0.100000001 -0.0283333343 0
0.0966666639 -0.0283333343 0
0.0933333337 -0.0283333343 0
0.0900000036 -0.0283333343 0
0.086666666 -0.0283333343 0
0.0833333358 -0.0283333343 0
0.0799999982 -0.0283333343 0
0.0766666681 -0.0283333343 0
0.0733333305 -0.0283333343 0
0.0700000003 -0.0283333343 0
0.0666666701 -0.0283333343 0
0.0633333325 -0.0283333343 0
0.0599999987 -0.0283333343 0
0.0566666685 -0.0283333343 0
0.0533333346 -0.0283333343 0
0.0500000007 -0.0283333343 0
0.0466666669 -0.0283333343 0
0.043333333 -0.0283333343 0
0.0399999991 -0.0283333343 0
0.0366666652 -0.0283333343 0
0.0333333351 -0.0283333343 0
0.0299999993 -0.0283333343 0
0.0266666673 -0.0283333343 0
0.0233333334 -0.0283333343 0
0.0199999996 -0.0283333343 0
0.0166666675 -0.0283333343 0
0.0133333337 -0.0283333343 0
0.00999999978 -0.0283333343 0
0.00666666683 -0.0283333343 0
0.00333333341 -0.0283333343 0
0 -0.0283333343 1
0.100000001 -0.0316666663 0
[...]
POINT_DATA 961
SCALARS Temp float 1
LOOKUP_TABLE default
249.34672168557128
217.67555172786828
197.71880411274975
186.67873988715067
181.28361122906213
178.92817624629436
177.99703839901133
177.65921741082158
177.54533306200014
177.50927444462093
177.49845349343693
177.49535243439118
177.49449847582525
177.49427150170516
177.49421374210473
177.4942026257019
177.49421374208578
177.49427150162546
177.49449847603213
177.49535243524585
177.4984534827868
177.509274441152
177.545333088138
177.65921726510354
177.9970385839851
178.9281742215019
181.28360996175695
186.6787282745549
197.71879367122133
217.67556679391546
249.34669191012784
217.67563644395906
184.94755695553525
164.32163059815946
152.9090206602449
147.33049001216793
144.89436286586906
143.9310815729789
143.58151387444522
143.46364280329263
143.4263140915744
143.41510985189876
143.41189839016275
143.41101388852013
143.41077876223477
143.41071892039594
143.4107074021989
143.41071892037604
143.41077876215104
143.41101388872943
143.41189839102609
143.41510984078195
143.42631408763015
143.46364282898938
143.58151371860174
143.93108174642467
144.89436070976052
147.33048850298573
152.90900795788093
164.32161804732706
184.94755465443052
217.67557032659352
197.7188792696846
164.32163073424837
143.26621863420897
131.61013591580274
125.90922321459134
123.41806402841841
122.4323862600894
122.07446687096122
121.95370817170944
121.91544387835627
121.90395297480413
121.9006578046145
121.89974985770702
121.89950840388019
121.89944693003397
121.8994350947682
121.89944693001277
121.89950840379092
121.89974985790748
121.90065780544089
121.9039529631584
121.91544387335794
121.9537081944071
122.07446669806961
122.43238639114726
123.41806166853985
125.90922117805646
131.6101214726051
143.2662008585356
164.3216176971122
197.718796289619
186.6788175222965
152.90902527940668
131.61014195289522
119.81265972000752
114.03864417719214
111.51361970949253
110.51374770943711
110.15038557597673
110.02769609767061
109.9887915244447
109.97710029676144
109.97374552497827
109.97282060240532
109.97257449777582
109.97251180857366
109.97249973502832
109.97251180855098
109.97257449767994
109.97282060258934
109.9737455257361
109.97710028457571
109.98879151807114
110.02769611594246
110.15038538337578
110.51374778518527
111.513617135241
114.03864158234265
119.81264362790239
131.61012075794446
152.90900681498667
186.67872801885642
181.2837042139426
147.33050911891706
125.90924384165966
114.03865897760834
108.2255678445891
105.68177703214847
104.67374789373389
104.30714657662118
104.18327001168858
104.14395992981994
104.13213839415867
104.1287439121716
104.12780743414264
104.12755810240951
104.12749455572444
104.12748231211553
104.12749455570024
104.12755810230703
104.12780743430663
104.12874391284846
104.1321383814826
104.1439599220602
104.18327002541584
104.30714636619717
104.67374791911088
105.68177428848094
108.22556483421651
114.03864189135858
125.90922091248339
147.3304883418435
181.28361197431286
178.9282751278663
144.89438359344868
123.4180856728823
111.51363548173471
105.68177799644859
103.12860694809774
102.116328064612
101.74796896868797
101.62342285068004
101.58387574468422
101.57197553295433
101.56855636437163
101.56761251181068
101.56736107171781
101.56729695329292
101.56728459469248
101.56729695326742
101.56736107160933
101.56761251195516
101.56855636497198
101.57197551988277
101.58387573576515
101.62342286068677
101.74796874504288
102.11632805423933
103.12860409797348
105.68177475432212
111.51361791281347
123.41806199874209
144.89436189717208
178.92818182466925
177.99713914437535
143.9311041526002
122.43241001625238
110.51376581835449
104.67375128966081
102.11633053658072
101.10203932765039
100.73280983887085
100.60791747823292
100.56824269201104
100.55629847360584
100.55286501588708
100.55191676074901
100.5516640265603
100.55159954864895
100.55158711654309
100.55159954862229
100.55166402644696
100.55191676087728
100.5528650164258
100.5562984602511
100.56824268226362
100.60791748569659
100.73280960699276
101.10203929652423
102.11632763171377
104.67374794028437
110.51374804789246
122.43238605444401
143.93108212090456
177.99704545608628
177.659311415514
143.58153419331964
122.07448983438965
110.15040335487518
104.3071497830129
101.74797129721381
100.73280970500768
100.36318580220329
100.23812908284815
100.19839091309112
100.1864239109821
100.18298276290984
100.18203205308019
100.1817785739632
100.18171388329318
100.1817014068517
100.18171388326574
100.18177857384632
100.18203205319656
100.18298276340555
100.18642389744676
100.19839090282997
100.23812908882674
100.36318556594281
100.73280966373504
101.74796836820353
104.30714639040052
110.15038550895333
122.07446577105976
143.58151204801052
177.65921759741397
177.54542046016832
143.46366141977532
121.95373080705362
110.0277139078669
104.18327336471604
101.62342536557996
100.60791754262593
100.23812928425019
100.11300073163403
100.07323352258233
100.06125559862662
100.05781060394433
100.05685861713127
100.05660473637046
100.0565399273466
100.0565274257121
100.05653992731844
100.05660473625124
100.05685861723984
100.05781060441304
100.0612555849885
100.07323351204184
100.11300073685982
100.23812904596133
100.60791749703334
101.62342242713557
104.18326995640966
110.02769603606177
121.95370671046668
143.46363923845163
177.54532660099932
177.50936234853825
143.4263331849949
121.9154664691122
109.98880925077108
104.1439632172643
101.58387820927574
100.56824271247262
100.19839107267879
100.07323348113411
100.0334539568611
100.02147117751522
100.01802439372634
100.01707178720551
100.01681770374775
100.01675283290449
100.01674031780055
100.016752832876
100.01681770362691
100.01707178730952
100.01802439418006
100.02147116382453
100.03345394618611
100.07323348602333
100.19839083355633
100.56824266523567
101.58387526748305
104.14395980372012
109.98879137070067
121.91544236229565
143.42631099289002
177.50926847707436
177.49855212769694
143.415130542158
121.90397585103173
109.97711806435227
104.13214168780875
101.57197800189813
100.55629849912917
100.1864240759601
100.06125556257282
100.02147118287827
100.00948639600774
100.00603883715796
100.00508594989931
100.00483177069353
100.00476686954744
100.00475434767336
100.00476686951863
100.00483177057193
100.0050859500009
100.00603883760421
100.00948638229292
100.02147117214534
100.0612555673272
100.18642383652747
100.55629845132076
101.57197505900652
104.13213827263225
109.97710018179521
121.90395174123185
143.41510834698397
177.49845825271674
177.4954516706361
143.41191920081224
121.9006807371645
109.97376332983794
104.12874723375411
101.5685588525824
100.552865056124
100.18298294071118
100.05781058002566
100.01802441100435
100.00603884901335
100.00259097656371
100.00163797038948
100.00138374881855
100.00131883373167
100.00130630866002
100.00131883370291
100.00138374869653
100.00163797048985
100.00259097700665
100.00603883528856
100.01802440024873
100.0578105847307
100.1829827011724
100.55286500813106
101.5685559093526
104.12874381809705
109.97374544656941
121.90065662653345
143.41189700479944
177.49535779469628
177.49458711493963
143.4110332657096
121.89977260754041
109.97283845701013
104.12781079611584
101.5676150182168
100.55191680758644
100.18203223304593
100.05685859391237
100.01707180474698
100.00508596189853
100.00163797050595
100.00068491711984
100.0004306779672
100.00036575685911
100.00035323036852
100.00036575683026
100.00043067784507
100.00068491721974
100.00163797094753
100.0050859481698
100.0170717939833
100.05685859860081
100.18203199347319
100.55191675953759
101.56761207488836
104.12780738032373
109.97282057354656
121.89974849668684
143.41101106947295
177.49449323875618
177.49435920363143
143.41079758178657
121.89953150381025
109.97259254932666
104.12756154804062
101.56736360782618
100.55166408283635
100.18177875663847
100.05660471381971
100.01681772138026
100.00483178262988
100.00138374883385
100.0004306778585
100.00017643186462
100.000111508319
100.00009898123845
100.00011150829003
100.00017643174236
100.00043067795814
100.00138374927491
100.00483176889983
100.01681771061381
100.05660471850298
100.18177851705552
100.55166403477139
101.56736066447031
104.12755813221219
109.97257466581134
121.89950739289864
143.41077538549314
177.49426532738553
177.49430559052186
143.41074155212522
121.89947112861138
109.97253022509678
104.12749811660039
101.56729952474323
100.55159961534552
100.18171406896862
100.05653990568779
100.01675285085717
100.00476688165526
100.00131883388168
100.00036575687629
100.0001115084433
100.00004658399682
100.000034056693
100.00004658396786
100.00011150832103
100.00036575697594
100.00131883432256
100.00476686792477
100.01675284008986
100.05653991036952
100.1817138293829
100.55159956727634
101.56729658138015
104.12749470076268
109.97251234156793
121.89944701768474
143.41071935581672
177.4942117142535
177.4943168826609
143.41073401227686
121.89946042368746
109.97251846608626
104.12748596406432
101.56728719230453
100.55158719060069
100.18170159455579
100.05652740461476
100.01674033592475
100.00475435985271
100.00130630885663
100.00035323042641
100.00009898140218
100.00003405673219
100.00002152937202
100.00003405670324
100.00009898127986
100.00035323052606
100.00130630929736
100.00475434612208
100.01674032515726
100.0565274092962
100.18170135496968
100.55158714253086
101.56728424894037
104.12748254822539
109.97250058255503
121.89943631275796
143.41071181597184
177.49422300637002
177.49432806357436
143.41074558964985
121.89947230247205
109.97253056443388
104.12749821900366
101.56729955489371
100.55159962396372
100.18171407134862
100.05653990632892
100.01675285103094
100.00476688170748
100.00131883390306
100.00036575689013
100.00011150845526
100.00004658400832
100.00003405670438
100.00004658397933
100.00011150833303
100.00036575698968
100.0013188343439
100.00476686797695
100.01675284026363
100.05653991101087
100.1817138317636
100.55159957589571
101.56729661153253
104.12749480316877
109.97251268090797
121.89944819154876
143.4107233933513
177.4942341872905
177.49436359688116
143.41080162187612
121.89953275669596
109.9725929971668
104.12756169541595
101.5673636542751
100.55166409670328
100.18177876060959
100.0566047149334
100.0168177217046
100.00483178274416
100.0013837488938
100.00043067790479
100.00017643190758
100.000111508361
100.00009898128039
100.0001115083321
100.00017643178525
100.00043067800445
100.00138374933483
100.00483176901419
100.01681771093853
100.0566047196178
100.18177852102917
100.55166404864292
101.56736071092668
104.1275582795986
109.97257511366554
121.89950864580169
143.41077942560167
177.49426972064896
177.49458683756848
143.41103323589263
121.89977331128298
109.97283878337426
104.12781092675527
101.56761506371731
100.5519168222614
100.18203223755965
100.05685859531268
100.01707180524468
100.00508596214611
100.0016379706868
100.00068491728344
100.00043067812645
100.0003657570173
100.0003532305265
100.00036575698836
100.00043067800432
100.00068491738338
100.00163797112845
100.00508594841777
100.0170717944822
100.0568586000046
100.18203199799471
100.55191677422779
101.56761212041522
104.12780751100384
109.97282089996675
121.89974920049944
143.41101103973494
177.4944929614676
177.4954421974476
143.4119192820739
121.9006809267873
109.97376351729298
104.12874732135093
101.56855888767429
100.55286506889354
100.18298294528319
100.05781058185563
100.01802441198242
100.00603884974211
100.00259097722319
100.00163797103042
100.00138374945475
100.0013188343667
100.00130630929473
100.0013188343378
100.00138374933263
100.00163797113079
100.00259097766616
100.00603883601792
100.01802440122948
100.05781058656949
100.1829827057666
100.55286502094782
101.56855594453172
104.12874390583558
109.97374563422856
121.90065681641842
143.41189708635778
177.49534832182124
177.49856169048797
143.41513099012417
121.90397613784766
109.97711817690644
104.13214174746884
101.57197803165589
100.55629851452348
100.18642408532196
100.0612555697036
100.02147118926388
100.00948640216431
100.00603884324862
100.005085955972
100.0048317767616
100.00476687561422
100.00475435373991
100.0047668755854
100.00483177663979
100.00508595607322
100.00603884369438
100.00948638844955
100.0214711785351
100.06125557447656
100.18642384594531
100.55629846684907
101.57197508903407
104.13213833275915
109.9771002950532
121.90395202898
143.41510879604058
177.49846781661654
177.50936419565392
143.4263345414385
121.91546666175931
109.98880932753019
104.14396325401535
101.58387822426465
100.56824271573804
100.1983910707029
100.0732334771495
100.03345395219351
100.02147117263534
100.018024388785
100.01707178224737
100.01681769878498
100.01675282794072
100.01674031283642
100.01675282791196
100.0168176986637
100.01707178234992
100.01802438923593
100.02147115894061
100.03345394151854
100.07323348206585
100.19839083169761
100.56824266883815
101.58387528323465
104.14395984190472
109.98879144975191
121.91544255810065
143.42631235310293
177.50927032808463
177.5454199517831
143.46366097344077
121.953730907177
110.02771406577858
104.18327348215479
101.6234254520425
100.60791761396027
100.23812934962721
100.11300079496054
100.07323358526723
100.06125566112435
100.05781066639027
100.05685867956328
100.05660479879897
100.05653998977418
100.05652748813944
100.05653998974562
100.05660479867835
100.05685867966837
100.05781066684997
100.06125564746762
100.07323357469971
100.11300080018626
100.23812911150742
100.60791756906856
101.62342251550419
104.18327007787293
110.02769620093477
121.95370682068749
143.46363880453274
177.54532610557905
177.6593056521576
143.58153308733066
122.07449010390488
110.15040351188522
104.3071498245394
101.74797127964258
100.73280966527396
100.36318575528601
100.23812903381197
100.19839086346363
100.18642386119454
100.18298271307954
100.18203200323845
100.1817785241184
100.18171383344763
100.18170135700578
100.18171383341938
100.18177852399899
100.18203200334692
100.18298271355279
100.18642384760308
100.19839085308523
100.23812903962136
100.36318551902534
100.7328096250038
101.74796835457336
104.30714644192807
110.15038568531432
122.07446607070284
143.58151098055592
177.6592118748354
177.99713453355395
143.93110787464656
122.43241165190373
110.513766886494
104.67375211620659
102.11633128680273
101.10204005674554
100.7328105629027
100.60791820118573
100.5682434147576
100.55629919631586
100.5528657385905
100.55191748345106
100.55166474926197
100.55160027135045
100.55158783924432
100.55160027132261
100.55166474914411
100.55191748356407
100.55286573908191
100.55629918282679
100.56824340467301
100.6079182079484
100.73281033002205
101.10204002561933
102.11632838754817
104.67374878744556
110.5137491638762
122.43238777264429
143.93108595469107
177.9970409655575
178.92830664289406
144.8943878608789
123.41808742515379
111.51363626367865
105.68177855659972
103.12860746484712
102.11632857694958
101.74796948191027
101.62342336463622
101.58387625892495
101.57197604727968
101.56855687871804
101.56761302616138
101.56736158606923
101.5672974676444
101.56728510904335
101.56729746761692
101.56736158595325
101.56761302627964
101.56855687923097
101.57197603393817
101.58387624924309
101.62342337273702
101.747969254324
102.1163285609644
103.12860461472293
105.6817753441005
111.51361879379989
123.4180639547071
144.8943664640071
178.9282136715348
181.2836999031026
147.33050934698468
125.90924174652002
114.03865672753876
108.22556567791837
105.68177493405365
104.67374582514137
104.30714451839614
104.18326795657805
104.14395787553667
104.13213634007055
104.12874185812379
104.12780538010159
104.12755604836926
104.12749250168393
104.1274802580744
104.12749250165697
104.12755604825558
104.12780538022483
104.12874185865869
104.13213632692737
104.14395786634324
104.18326796628077
104.30714429797099
104.67374582990267
105.68177216075843
108.22556266754523
114.0386397904113
125.90921924789822
147.3304893136168
181.2836085144686
186.67881260280734
152.90902424910325
131.61014410255922
119.81266345338274
114.03864859775173
111.5136243798805
110.51375246556738
110.15039035887837
110.02770088831309
109.98879631717145
109.9771050900158
109.9737503183587
109.97282539581452
109.97257929119107
109.97251660198992
109.97250452844402
109.97251660196366
109.9725792910802
109.97282539594187
109.97375031891205
109.97710507712588
109.98879630850548
110.02770089962334
110.1503901469262
110.5137524934705
111.51362170658525
114.03864585377818
119.81264736127788
131.61012365545957
152.90900743366385
186.67872525835693
197.7188542321107
164.32161278990864
143.26620856563477
131.61012880818595
125.90921708551733
123.41805824440604
122.43238058558482
122.07446122857064
121.95370253796354
121.91543824676273
121.90394734370649
121.90065217362228
121.899744226735
121.89950277291155
121.89944129906544
121.89942946379895
121.89944129903984
121.89950277280384
121.8997442268647
121.90065217418622
121.90394733112834
121.91543823860644
121.95370255056383
122.0744610255506
122.43238063409245
123.41805568083183
125.90921461842406
131.61011361713605
143.26619078995836
164.3216038768941
197.7187761568113
217.67561109209456
184.94756854725486
164.32165131463415
152.9090440070782
147.33051460858712
144.8943879262829
143.9311067916223
143.58153914204698
143.4636680849683
143.42633937704795
143.4151351383451
143.4119236768475
143.41103917526115
143.41080404898844
143.4107442071521
143.41073268895462
143.41074420712744
143.41080404888422
143.4110391753905
143.41192367741058
143.41513512614094
143.42633936933478
143.4636680982496
143.58153894766673
143.93110685332312
144.8943854707765
147.3305123556918
152.90902965573014
164.32163463966273
184.94756624613095
217.675573046325
249.34670526125745
217.6755510853422
197.7187999841464
186.67873805193912
181.28361040024257
178.9281758181396
177.9970381043771
177.65921715639095
177.54533281862328
177.50927420406424
177.49845325355315
177.49535219465812
177.49449823612386
177.49427126200985
177.49421350241028
177.49420238600666
177.49421350238643
177.49427126190955
177.4944982362498
177.4953521952066
177.4984532417872
177.50927419669804
177.54533283179737
177.65921696990137
177.99703816905884
178.9281734614816
181.28360828193388
186.67872428035707
197.7187846378363
217.67553807979934
249.3466754858434
