# vtk DataFile Version 2.0
Unstructured Grid Example
ASCII
DATASET UNSTRUCTURED_GRID

POINTS 961.0 float
0.100000001 0.00499999989 0
0.0966666639 0.00499999989 0
0.0933333337 0.00499999989 0
0.0900000036 0.00499999989 0
0.086666666 0.00499999989 0
0.0833333358 0.00499999989 0
0.0799999982 0.00499999989 0
0.0766666681 0.00499999989 0
0.0733333305 0.00499999989 0
0.0700000003 0.00499999989 0
0.0666666701 0.00499999989 0
0.0633333325 0.00499999989 0
0.0599999987 0.00499999989 0
0.0566666685 0.00499999989 0
0.0533333346 0.00499999989 0
0.0500000007 0.00499999989 0
0.0466666669 0.00499999989 0
0.043333333 0.00499999989 0
0.0399999991 0.00499999989 0
0.0366666652 0.00499999989 0
0.0333333351 0.00499999989 0
0.0299999993 0.00499999989 0
0.0266666673 0.00499999989 0
0.0233333334 0.00499999989 0
0.0199999996 0.00499999989 0
0.0166666675 0.00499999989 0
0.0133333337 0.00499999989 0
0.00999999978 0.00499999989 0
0.00666666683 0.00499999989 0
0.00333333341 0.00499999989 0
0.0 0.00499999989 0
0.100000001 0.00166666671 0
0.0966666639 0.00166666671 0
0.0933333337 0.00166666671 0
0.0900000036 0.00166666671 0
0.086666666 0.00166666671 0
0.0833333358 0.00166666671 0
0.0799999982 0.00166666671 0
0.0766666681 0.00166666671 0
0.0733333305 0.00166666671 0
0.0700000003 0.00166666671 0
0.0666666701 0.00166666671 0
0.0633333325 0.00166666671 0
0.0599999987 0.00166666671 0
0.0566666685 0.00166666671 0
0.0533333346 0.00166666671 0
0.0500000007 0.00166666671 0
0.0466666669 0.00166666671 0
0.043333333 0.00166666671 0
0.0399999991 0.00166666671 0
0.0366666652 0.00166666671 0
0.0333333351 0.00166666671 0
0.0299999993 0.00166666671 0
0.0266666673 0.00166666671 0
0.0233333334 0.00166666671 0
0.0199999996 0.00166666671 0
0.0166666675 0.00166666671 0
0.0133333337 0.00166666671 0
0.00999999978 0.00166666671 0
0.00666666683 0.00166666671 0
0.00333333341 0.00166666671 0
0.0 0.00166666671 0
0.100000001 -0.00166666671 0
0.0966666639 -0.00166666671 0
0.0933333337 -0.00166666671 0
0.0900000036 -0.00166666671 0
0.086666666 -0.00166666671 0
0.0833333358 -0.00166666671 0
0.0799999982 -0.00166666671 0
0.0766666681 -0.00166666671 0
0.0733333305 -0.00166666671 0
0.0700000003 -0.00166666671 0
0.0666666701 -0.00166666671 0
0.0633333325 -0.00166666671 0
0.0599999987 -0.00166666671 0
0.0566666685 -0.00166666671 0
0.0533333346 -0.00166666671 0
0.0500000007 -0.00166666671 0
0.0466666669 -0.00166666671 0
0.043333333 -0.00166666671 0
0.0399999991 -0.00166666671 0
0.0366666652 -0.00166666671 0
0.0333333351 -0.00166666671 0
0.0299999993 -0.00166666671 0
0.0266666673 -0.00166666671 0
0.0233333334 -0.00166666671 0
0.0199999996 -0.00166666671 0
0.0166666675 -0.00166666671 0
0.0133333337 -0.00166666671 0
0.00999999978 -0.00166666671 0
0.00666666683 -0.00166666671 0
0.00333333341 -0.00166666671 0
0.0 -0.00166666671 0
0.100000001 -0.00499999989 0
0.0966666639 -0.00499999989 0
0.0933333337 -0.00499999989 0
0.0900000036 -0.00499999989 0
0.086666666 -0.00499999989 0
0.0833333358 -0.00499999989 0
0.0799999982 -0.00499999989 0
0.0766666681 -0.00499999989 0
0.0733333305 -0.00499999989 0
0.0700000003 -0.00499999989 0
0.0666666701 -0.00499999989 0
0.0633333325 -0.00499999989 0
0.0599999987 -0.00499999989 0
0.0566666685 -0.00499999989 0
0.0533333346 -0.00499999989 0
0.0500000007 -0.00499999989 0
0.0466666669 -0.00499999989 0
0.043333333 -0.00499999989 0
0.0399999991 -0.00499999989 0
0.0366666652 -0.00499999989 0
0.0333333351 -0.00499999989 0
0.0299999993 -0.00499999989 0
0.0266666673 -0.00499999989 0
0.0233333334 -0.00499999989 0
0.0199999996 -0.00499999989 0
0.0166666675 -0.00499999989 0
0.0133333337 -0.00499999989 0
0.00999999978 -0.00499999989 0
0.00666666683 -0.00499999989 0
0.00333333341 -0.00499999989 0
0.0 -0.00499999989 0
0.100000001 -0.00833333377 0
0.0966666639 -0.00833333377 0
0.0933333337 -0.00833333377 0
0.0900000036 -0.00833333377 0
0.086666666 -0.00833333377 0
0.0833333358 -0.00833333377 0
0.0799999982 -0.00833333377 0
0.0766666681 -0.00833333377 0
0.0733333305 -0.00833333377 0
0.0700000003 -0.00833333377 0
0.0666666701 -0.00833333377 0
0.0633333325 -0.00833333377 0
0.0599999987 -0.00833333377 0
0.0566666685 -0.00833333377 0
0.0533333346 -0.00833333377 0
0.0500000007 -0.00833333377 0
0.0466666669 -0.00833333377 0
0.043333333 -0.00833333377 0
0.0399999991 -0.00833333377 0
0.0366666652 -0.00833333377 0
0.0333333351 -0.00833333377 0
0.0299999993 -0.00833333377 0
0.0266666673 -0.00833333377 0
0.0233333334 -0.00833333377 0
0.0199999996 -0.00833333377 0
0.0166666675 -0.00833333377 0
0.0133333337 -0.00833333377 0
0.00999999978 -0.00833333377 0
0.00666666683 -0.00833333377 0
0.00333333341 -0.00833333377 0
0.0 -0.00833333377 0
0.100000001 -0.0116666667 0
0.0966666639 -0.0116666667 0
0.0933333337 -0.0116666667 0
0.0900000036 -0.0116666667 0
0.086666666 -0.0116666667 0
0.0833333358 -0.0116666667 0
0.0799999982 -0.0116666667 0
0.0766666681 -0.0116666667 0
0.0733333305 -0.0116666667 0
0.0700000003 -0.0116666667 0
0.0666666701 -0.0116666667 0
0.0633333325 -0.0116666667 0
0.0599999987 -0.0116666667 0
0.0566666685 -0.0116666667 0
0.0533333346 -0.0116666667 0
0.0500000007 -0.0116666667 0
0.0466666669 -0.0116666667 0
0.043333333 -0.0116666667 0
0.0399999991 -0.0116666667 0
0.0366666652 -0.0116666667 0
0.0333333351 -0.0116666667 0
0.0299999993 -0.0116666667 0
0.0266666673 -0.0116666667 0
0.0233333334 -0.0116666667 0
0.0199999996 -0.0116666667 0
0.0166666675 -0.0116666667 0
0.0133333337 -0.0116666667 0
0.00999999978 -0.0116666667 0
0.00666666683 -0.0116666667 0
0.00333333341 -0.0116666667 0
0.0 -0.0116666667 0
0.100000001 -0.0149999997 0
0.0966666639 -0.0149999997 0
0.0933333337 -0.0149999997 0
0.0900000036 -0.0149999997 0
0.086666666 -0.0149999997 0
0.0833333358 -0.0149999997 0
0.0799999982 -0.0149999997 0
0.0766666681 -0.0149999997 0
0.0733333305 -0.0149999997 0
0.0700000003 -0.0149999997 0
0.0666666701 -0.0149999997 0
0.0633333325 -0.0149999997 0
0.0599999987 -0.0149999997 0
0.0566666685 -0.0149999997 0
0.0533333346 -0.0149999997 0
0.0500000007 -0.0149999997 0
0.0466666669 -0.0149999997 0
0.043333333 -0.0149999997 0
0.0399999991 -0.0149999997 0
0.0366666652 -0.0149999997 0
0.0333333351 -0.0149999997 0
0.0299999993 -0.0149999997 0
0.0266666673 -0.0149999997 0
0.0233333334 -0.0149999997 0
0.0199999996 -0.0149999997 0
0.0166666675 -0.0149999997 0
0.0133333337 -0.0149999997 0
0.00999999978 -0.0149999997 0
0.00666666683 -0.0149999997 0
0.00333333341 -0.0149999997 0
0.0 -0.0149999997 0
0.100000001 -0.0183333326 0
0.0966666639 -0.0183333326 0
0.0933333337 -0.0183333326 0
0.0900000036 -0.0183333326 0
0.086666666 -0.0183333326 0
0.0833333358 -0.0183333326 0
0.0799999982 -0.0183333326 0
0.0766666681 -0.0183333326 0
0.0733333305 -0.0183333326 0
0.0700000003 -0.0183333326 0
0.0666666701 -0.0183333326 0
0.0633333325 -0.0183333326 0
0.0599999987 -0.0183333326 0
0.0566666685 -0.0183333326 0
0.0533333346 -0.0183333326 0
0.0500000007 -0.0183333326 0
0.0466666669 -0.0183333326 0
0.043333333 -0.0183333326 0
0.0399999991 -0.0183333326 0
0.0366666652 -0.0183333326 0
0.0333333351 -0.0183333326 0
0.0299999993 -0.0183333326 0
0.0266666673 -0.0183333326 0
0.0233333334 -0.0183333326 0
0.0199999996 -0.0183333326 0
0.0166666675 -0.0183333326 0
0.0133333337 -0.0183333326 0
0.00999999978 -0.0183333326 0
0.00666666683 -0.0183333326 0
0.00333333341 -0.0183333326 0
0.0 -0.0183333326 0
0.100000001 -0.0216666665 0
0.0966666639 -0.0216666665 0
0.0933333337 -0.0216666665 0
0.0900000036 -0.0216666665 0
0.086666666 -0.0216666665 0
0.0833333358 -0.0216666665 0
0.0799999982 -0.0216666665 0
0.0766666681 -0.0216666665 0
0.0733333305 -0.0216666665 0
0.0700000003 -0.0216666665 0
0.0666666701 -0.0216666665 0
0.0633333325 -0.0216666665 0
0.0599999987 -0.0216666665 0
0.0566666685 -0.0216666665 0
0.0533333346 -0.0216666665 0
0.0500000007 -0.0216666665 0
0.0466666669 -0.0216666665 0
0.043333333 -0.0216666665 0
0.0399999991 -0.0216666665 0
0.0366666652 -0.0216666665 0
0.0333333351 -0.0216666665 0
0.0299999993 -0.0216666665 0
0.0266666673 -0.0216666665 0
0.0233333334 -0.0216666665 0
0.0199999996 -0.0216666665 0
0.0166666675 -0.0216666665 0
0.0133333337 -0.0216666665 0
0.00999999978 -0.0216666665 0
0.00666666683 -0.0216666665 0
0.00333333341 -0.0216666665 0
0.0 -0.0216666665 0
0.100000001 -0.0250000004 0
0.0966666639 -0.0250000004 0
0.0933333337 -0.0250000004 0
0.0900000036 -0.0250000004 0
0.086666666 -0.0250000004 0
0.0833333358 -0.0250000004 0
0.0799999982 -0.0250000004 0
0.0766666681 -0.0250000004 0
0.0733333305 -0.0250000004 0
0.0700000003 -0.0250000004 0
0.0666666701 -0.0250000004 0
0.0633333325 -0.0250000004 0
0.0599999987 -0.0250000004 0
0.0566666685 -0.0250000004 0
0.0533333346 -0.0250000004 0
0.0500000007 -0.0250000004 0
0.0466666669 -0.0250000004 0
0.043333333 -0.0250000004 0
0.0399999991 -0.0250000004 0
0.0366666652 -0.0250000004 0
0.0333333351 -0.0250000004 0
0.0299999993 -0.0250000004 0
0.0266666673 -0.0250000004 0
0.0233333334 -0.0250000004 0
0.0199999996 -0.0250000004 0
0.0166666675 -0.0250000004 0
0.0133333337 -0.0250000004 0
0.00999999978 -0.0250000004 0
0.00666666683 -0.0250000004 0
0.00333333341 -0.0250000004 0
0.0 -0.0250000004 0
0.100000001 -0.0283333343 0
0.0966666639 -0.0283333343 0
0.0933333337 -0.0283333343 0
0.0900000036 -0.0283333343 0
0.086666666 -0.0283333343 0
0.0833333358 -0.0283333343 0
0.0799999982 -0.0283333343 0
0.0766666681 -0.0283333343 0
0.0733333305 -0.0283333343 0
0.0700000003 -0.0283333343 0
0.0666666701 -0.0283333343 0
0.0633333325 -0.0283333343 0
0.0599999987 -0.0283333343 0
0.0566666685 -0.0283333343 0
0.0533333346 -0.0283333343 0
0.0500000007 -0.0283333343 0
0.0466666669 -0.0283333343 0
0.043333333 -0.0283333343 0
0.0399999991 -0.0283333343 0
0.0366666652 -0.0283333343 0
0.0333333351 -0.0283333343 0
0.0299999993 -0.0283333343 0
0.0266666673 -0.0283333343 0
0.0233333334 -0.0283333343 0
0.0199999996 -0.0283333343 0
0.0166666675 -0.0283333343 0
0.0133333337 -0.0283333343 0
0.00999999978 -0.0283333343 0
0.00666666683 -0.0283333343 0
0.00333333341 -0.0283333343 0
0.0 -0.0283333343 0
[...]
POINT_DATA 961.0
SCALARS Temp float 1
LOOKUP_TABLE default
249.34671899719677
217.6755493327833
197.71880285082236
186.67873933597684
181.28361102608474
178.92817619627488
177.99703841010907
177.65921744441926
177.54533310330112
177.50927448839676
177.49845353796488
177.49535247913698
177.4944985206314
177.49427154652756
177.49421378693137
177.49420267052972
177.49421378691437
177.49427154645616
177.4944985208708
177.49535248011426
177.4984535277633
177.50927448650725
177.54533313476486
177.65921731578672
177.99703864682493
178.928174318059
181.28361014301439
186.67872864339856
197.7187943817215
217.67556805050955
249.34669329993545
217.67563109557491
184.94755401644008
164.32162918557322
152.90902004660157
147.3304897854235
144.8943628074191
143.9310815813025
143.58151390715835
143.4636428442932
143.42631413521923
143.41510989634267
143.41189843483687
143.41101393325803
143.41077880698964
143.41071896515516
143.41070744695938
143.41071896513733
143.41077880691452
143.41101393350118
143.41189843582868
143.41510988569624
143.42631413293424
143.46364287559638
143.5815137693517
143.93108180958066
144.89436080747595
147.33048868892382
152.909008345344
164.3216188399107
184.9475560440525
217.6755728426782
197.71887127388723
164.3216281341515
143.26621802962012
131.61013632365808
125.90922409842877
123.41806511586591
122.43238742679694
122.07446806608462
121.9537093763217
121.91544508595032
121.9039541832875
121.90065901335157
121.8997510665135
121.89950961270526
121.8994481388636
121.89943630359924
121.8994481388446
121.8995096126249
121.89975106674972
121.90065901431362
121.90395417214062
121.91544508271818
121.95370940501809
122.07446791261553
122.43238761739245
123.41806292745503
125.90922252214236
131.61012302375582
143.2662028729844
164.3216206964371
197.71880024687383
186.67881059247756
152.90902131461885
131.61014038197405
119.8126594089967
114.0386444519378
111.51362022796278
110.51374832033085
110.15038621923406
110.02769675151912
109.9887921815649
109.9771009548437
109.97374618333147
109.97282126083225
109.97257515622215
109.97251246702487
109.97250039348086
109.97251246700446
109.9725751561358
109.97282126105408
109.97374618423325
109.97710094318835
109.98879217707737
110.02769677622938
110.15038604760734
110.51374846084956
111.51361784192173
114.0386423677957
119.81264460221554
131.6101221764385
152.9090092971968
186.67873366765227
181.2836954984217
147.3305045503901
125.90924227368806
114.03865896716317
108.22556853089746
105.68177799994076
104.67374896586571
104.3071476846837
104.18327113136257
104.14396105304645
104.1321395184219
104.12874503672518
104.12780855877472
104.12755922706222
104.12749568038232
104.12748343677497
104.12749568036054
104.12755922696984
104.1278085589785
104.12874503755387
104.1321395063067
104.14396104728719
104.18327115194066
104.30714749665347
104.67374906063405
105.68177545854542
108.22556607057223
114.03864326471583
125.90922254109198
147.33049048086764
181.28361598902805
178.9282605019718
144.89437727315513
123.41808310765465
111.51363464078482
105.68177789224043
103.12860713481881
102.11632835790282
101.74796929840777
101.62342319211216
101.58387608968528
101.57197587899343
101.56855671070066
101.56761285821791
101.56736141814551
101.56729729972591
101.5672849411268
101.56729729970276
101.56736141804738
101.56761285840392
101.56855671145966
101.57197586650885
101.58387608286164
101.62342320930048
101.74796909824602
102.11632842027292
103.12860449641292
105.68177522387896
111.5136185060528
123.41806270849484
144.89436236442464
178.9281799438168
177.99712464753492
143.93109799162852
122.43240744669494
110.51376482359181
104.67375096769398
102.1163304839295
101.10203937494596
100.73280992070457
100.6079175712645
100.56824278847678
100.55629857107553
100.55286511363829
100.55191685857655
100.55166412440796
100.55159964650178
100.55158721439733
100.55159964647757
100.55166412430533
100.55191685874773
100.55286511434107
100.55629855832733
100.56824278089364
100.60791758613877
100.732809713022
101.10203941859396
102.11632779596991
104.6737482034943
110.51374850737835
122.43238678625227
143.93108276795644
177.9970436969219
177.65930345060843
143.58153005732498
122.07448783198116
110.15040247624799
104.30714943980277
101.74797118139169
100.73280967676712
100.36318580498826
100.23812909587537
100.19839092930437
100.18642392813781
100.1829827803326
100.18203207057586
100.18177859147818
100.18171390081322
100.18170142437303
100.18171390078824
100.18177859137231
100.18203207073606
100.18298278099581
100.18642391522208
100.19839092125167
100.2381291094031
100.36318559332295
100.7328097113106
101.74796847166755
104.3071466369135
110.15038609154306
122.07446707780932
143.58151472422338
177.65922236366575
177.54541928627708
143.4636591700838
121.95372932579417
110.02771319870986
104.183273079035
101.623425270778
100.6079175237472
100.23812929288697
100.11300074952864
100.07323354340632
100.06125562033066
100.05781062590127
100.05685863915812
100.05660475841616
100.05653994939712
100.05652744776404
100.05653994937161
100.05660475830811
100.05685863931126
100.05781062653993
100.06125560732005
100.07323353509933
100.11300076237673
100.2381290793878
100.60791755443014
101.623422552554
104.1832702620419
110.02769679027612
121.95370854040581
143.46364380142143
177.54533815498345
177.50936062119132
143.42633040666263
121.91546498077514
109.98880857431482
104.14396294587536
101.58387811397203
100.56824268656923
100.19839107204551
100.07323348909777
100.03345396758188
100.02147118907553
100.01802440553102
100.01707179907851
100.01681771563914
100.01675284480085
100.01674032969827
100.01675284477494
100.01681771552988
100.0170717992275
100.01802440615609
100.02147117601675
100.03345395915298
100.07323350164344
100.1983908577957
100.56824271578509
101.5838753927254
104.14396012414419
109.988792158219
121.91544418562053
143.42631502709057
177.50927947626647
177.49853966829295
143.41512616449015
121.90397407501214
109.97711734474356
104.13214140838762
101.571977900648
100.55629846658623
100.18642406837603
100.06125556352623
100.02147118658988
100.00948640056535
100.00603884196315
100.00508595477419
100.00483177558729
100.00476687444606
100.00475435257354
100.00476687442006
100.00483177547714
100.00508595492103
100.00603884258157
100.00948638748447
100.0214711781087
100.06125557595115
100.18642385384756
100.55629849529173
101.57197517840544
104.1321385851678
109.97710092631473
121.90395327695978
143.4151107817323
177.49845851937894
177.49543861608146
143.4119147096184
121.90067891195478
109.97376258031372
104.12874693385373
101.56855873964403
100.5528650164871
100.18298292795558
100.05781057649533
100.01802441045344
100.00603884937397
100.00259097719035
100.00163797109056
100.00138374953963
100.00131883445815
100.00130630938794
100.00131883443194
100.00138374942912
100.00163797123622
100.00259097780571
100.006038836284
100.01802440195186
100.05781058887627
100.18298271333178
100.55286504502769
101.56855601709319
104.12874411019153
109.97374616120884
121.9006581130807
143.41189932596905
177.4953574660485
177.49458465720295
143.4110302075923
121.89977096467629
109.97283765738698
104.12781045546848
101.56761488674465
100.55191676101308
100.18203221779605
100.05685858935153
100.01707180360279
100.00508596178749
100.0016379706929
100.0006849173894
100.00043067825888
100.00036575715649
100.00035323066747
100.00036575713024
100.00043067814822
100.0006849175346
100.00163797130699
100.00508594869397
100.0170717950939
100.05685860171769
100.18203200314169
100.55191678950348
101.56761216410341
104.12780763168075
109.97282123809427
121.89975016557803
143.41101482370243
177.49450350686737
177.49435768280657
143.41079508100438
121.89952951054437
109.97259155245227
104.12756112342605
101.5673634463453
100.55166402651764
100.18177873837355
100.05660470828525
100.01681771983989
100.00483178227717
100.00138374881864
100.00043067793553
100.00017643196601
100.00011150842663
100.00009898134783
100.00011150840034
100.00017643185524
100.0004306780805
100.0013837494323
100.00483176918247
100.01681771132851
100.05660472064672
100.18177852371014
100.55166405499342
101.56736072367872
104.12755829960412
109.97257513310933
121.89950871138699
143.41077969705177
177.49427653239192
177.49429992324818
143.41073523920488
121.8994680367398
109.97252886329402
104.12749757678532
101.56729932796665
100.55159954865299
100.18171404775121
100.05653989930924
100.01675284904488
100.0047668811796
100.00131883378077
100.00036575687666
100.00011150847023
100.00004658403051
100.00003405672845
100.00004658400414
100.00011150835952
100.00036575702167
100.0013188343942
100.00476686808447
100.01675284053287
100.05653991166926
100.18171383308518
100.55159957712493
101.56729660529338
104.12749475295459
109.97251244393829
121.89944723756773
143.41071985523666
177.49421877281372
177.49428880685346
143.41072372101556
121.8994562014824
109.97251678975758
104.12748533318576
101.56728696937608
100.55158711655749
100.1817015713204
100.05652739768567
100.01674033395207
100.00475435931679
100.00130630872039
100.0003532303976
100.00009898140127
100.00003405673837
100.00002152938008
100.00003405671207
100.00009898129053
100.00035323054256
100.00130630933387
100.00475434622157
100.01674032543994
100.05652741004565
100.18170135665395
100.55158714502869
101.56728424670172
104.12748250935365
109.9725003703998
121.89943540230786
143.4107083370448
177.4942076564158
177.49429992324553
143.41073523920235
121.89946803673755
109.97252886329211
104.12749757678382
101.56729932796564
100.55159954865239
100.18171404775086
100.05653989930904
100.01675284904485
100.00476688117965
100.00131883378076
100.00036575687669
100.0001115084702
100.0000465840305
100.00003405672845
100.00004658400424
100.00011150835947
100.00036575702168
100.0013188343942
100.00476686808442
100.0167528405328
100.05653991166933
100.18171383308515
100.55159957712493
101.56729660529338
104.12749475295459
109.97251244393829
121.89944723756767
143.41071985523666
177.49421877281372
177.4943576827957
143.41079508099367
121.89952951053476
109.97259155244441
104.1275611234202
101.56736344634133
100.55166402651523
100.18177873837226
100.05660470828461
100.01681771983961
100.00483178227715
100.00138374881867
100.00043067793553
100.00017643196595
100.00011150842661
100.00009898134783
100.00011150840032
100.00017643185527
100.00043067808058
100.00138374943226
100.00483176918243
100.01681771132853
100.05660472064667
100.18177852371014
100.55166405499342
101.56736072367869
104.12755829960412
109.97257513310932
121.89950871138703
143.4107796970518
177.4942765323919
177.49458465716043
143.41103020755043
121.89977096463916
109.97283765735726
104.1278104554471
101.56761488673081
100.55191676100509
100.18203221779191
100.05685858934974
100.01707180360222
100.00508596178736
100.00163797069293
100.00068491738944
100.00043067825888
100.00036575715646
100.00035323066746
100.00036575713025
100.00043067814823
100.00068491753463
100.00163797130705
100.00508594869403
100.01707179509393
100.05685860171769
100.18203200314167
100.55191678950342
101.56761216410337
104.12780763168078
109.97282123809431
121.89975016557804
143.41101482370237
177.49450350686735
177.4954386159208
143.41191470946086
121.90067891181718
109.97376258020653
104.12874693377938
101.56855873959817
100.55286501646236
100.18298292794394
100.05781057649081
100.01802441045203
100.00603884937371
100.00259097719042
100.00163797109059
100.00138374953967
100.00131883445817
100.00130630938796
100.00131883443198
100.00138374942917
100.00163797123625
100.00259097780575
100.00603883628408
100.01802440195189
100.05781058887631
100.18298271333177
100.55286504502767
101.56855601709323
104.12874411019153
109.97374616120885
121.90065811308068
143.41189932596902
177.4953574660485
177.49853966770812
143.41512616392012
121.90397407452348
109.97711734437455
104.13214140814291
101.57197790050662
100.55629846651586
100.18642406834671
100.06125556351647
100.0214711865878
100.00948640056534
100.0060388419636
100.00508595477449
100.00483177558742
100.00476687444616
100.00475435257357
100.00476687442007
100.0048317754772
100.00508595492097
100.00603884258163
100.0094863874846
100.02147117810867
100.0612555759512
100.18642385384766
100.55629849529177
101.57197517840548
104.1321385851678
109.9771009263147
121.90395327695983
143.41511078173232
177.49845851937897
177.50936061915084
143.42633040468934
121.9154649791219
109.98880857311478
104.14396294512478
101.58387811357265
100.56824268639274
100.19839107198416
100.07323348908358
100.03345396758192
100.02147118907783
100.01802440553263
100.01707179907935
100.0168177156395
100.01675284480095
100.01674032969834
100.01675284477496
100.0168177155299
100.01707179922758
100.01802440615616
100.02147117601686
100.03345395915308
100.07323350164354
100.19839085779576
100.568242715785
101.58387539272539
104.14396012414416
109.98879215821907
121.91544418562052
143.42631502709054
177.50927947626647
177.54541927949964
143.46365916359298
121.95372932051514
110.0277131950702
104.1832730769308
101.6234252697812
100.60791752338059
100.23812929279842
100.11300074952872
100.0732335434206
100.06125562034045
100.057810625906
100.05685863916001
100.05660475841682
100.05653994939739
100.05652744776411
100.05653994937168
100.05660475830817
100.0568586393113
100.05781062653996
100.06125560732019
100.07323353509939
100.11300076237677
100.23812907938786
100.60791755443012
101.62342255255402
104.18327026204184
110.02769679027605
121.95370854040576
143.46364380142137
177.5453381549834
177.65930342933086
143.58153003721367
122.07448781625745
110.15040246614808
104.30714943458227
101.74797117933393
100.73280967624353
100.36318580498833
100.23812909596387
100.19839092936581
100.18642392816724
100.18298278034436
100.18203207058001
100.18177859147953
100.18171390081358
100.1817014243732
100.18171390078825
100.18177859137236
100.18203207073616
100.18298278099583
100.18642391522211
100.19839092125169
100.23812910940316
100.36318559332308
100.7328097113108
101.74796847166758
104.30714663691344
110.15038609154291
122.07446707780923
143.58151472422335
177.6592223636655
177.99712458490527
143.93109793344925
122.43240740371245
110.5137647986773
104.67375095695559
102.11633048100502
101.10203937494607
100.73280992122835
100.60791757163108
100.56824278865342
100.55629857114602
100.55286511366324
100.55191685858459
100.55166412441034
100.55159964650248
100.55158721439753
100.55159964647763
100.5516641243055
100.55191685874776
100.5528651143411
100.55629855832738
100.5682427808936
100.60791758613884
100.73280971302209
101.10203941859403
102.11632779596987
104.67374820349417
110.51374850737827
122.43238678625214
143.93108276795635
177.99704369692188
178.92826032974958
144.894377117767
123.41808300193513
111.51363458936312
105.68177787685465
103.12860713481888
102.11632836082754
101.7479693004656
101.62342319310889
101.58387609008483
101.57197587913504
101.5685567107466
101.56761285823174
101.56736141814947
101.56729729972702
101.5672849411271
101.56729729970291
101.56736141804755
101.56761285840395
101.5685567114597
101.57197586650878
101.58387608286155
101.62342320930053
101.74796909824607
102.11632842027292
103.12860449641286
105.6817752238788
111.51361850605272
123.41806270849479
144.89436236442452
178.92817994381676
181.28369505867795
147.3305041661802
125.90924205115893
114.0386588901119
108.22556853089759
105.68177801532677
104.67374897660426
104.30714768990437
104.183271133467
104.14396105379714
104.1321395186667
104.12874503679977
104.12780855879627
104.12755922706812
104.12749568038402
104.12748343677542
104.12749568036072
104.12755922696996
104.12780855897853
104.12874503755386
104.13213950630657
104.14396104728715
104.18327115194069
104.30714749665356
104.6737490606341
105.68177545854532
108.22556607057204
114.03864326471574
125.9092225410918
147.33049048086747
181.28361598902796
186.67880948423604
152.9090204673698
131.61013999832025
119.81265940899685
114.03864452898942
111.5136202793848
110.51374834524567
110.1503862293341
110.02769675515894
109.98879218276518
109.9771009552128
109.97374618343878
109.9728212608621
109.97257515623005
109.97251246702693
109.97250039348138
109.97251246700473
109.9725751561359
109.97282126105415
109.97374618423325
109.97710094318833
109.98879217707734
110.0276967762293
110.1503860476074
110.51374846084965
111.51361784192167
114.03864236779556
119.81264460221543
131.61012217643844
152.90900929719666
186.67873366765224
197.71886877043676
164.32162603634796
143.26621802962086
131.61013670731313
125.90922432095859
123.41806522158578
122.43238746977978
122.07446808180858
121.95370938160089
121.91544508760377
121.90395418377629
121.9006590134892
121.89975106655075
121.89950961271491
121.89944813886622
121.89943630359983
121.89944813884469
121.89950961262495
121.89975106674981
121.90065901431359
121.90395417214056
121.91544508271821
121.95370940501813
122.07446791261557
122.43238761739242
123.41806292745505
125.9092225221423
131.61012302375576
143.26620287298428
164.32162069643715
197.71880024687394
217.67561691536415
184.94755401644653
164.32163128338107
152.9090208938535
147.3304901696343
144.89436296280783
143.93108163948207
143.5815139272699
143.4636428507841
143.42631413719246
143.41510989691267
143.41189843499453
143.41101393330004
143.41077880700058
143.41071896515797
143.41070744696015
143.41071896513748
143.41077880691472
143.41101393350118
143.41189843582887
143.41510988569627
143.42631413293432
143.46364287559655
143.5815137693518
143.93108180958083
144.89436080747606
147.33048868892377
152.909008345344
164.32161883991074
184.94755604405256
217.6755728426783
249.34671899717654
217.67556351299513
197.71880535427724
186.6787404442212
181.28361146582913
178.9281763684978
177.99703847273892
177.6592174656968
177.5453331100786
177.50927449043706
177.4984535385497
177.49535247929774
177.49449852067403
177.49427154653858
177.49421378693427
177.4942026705305
177.49421378691454
177.49427154645622
177.49449852087093
177.49535248011426
177.49845352776333
177.5092744865073
177.545333134765
177.65921731578692
177.997038646825
178.92817431805904
181.28361014301447
186.67872864339856
197.71879438172147
217.6755680505096
249.3466932999356
