# vtk DataFile Version 2.0
Unstructured Grid Example
ASCII
DATASET UNSTRUCTURED_GRID

POINTS 961.0 float
0.100000001 0.00499999989 0
0.0966666639 0.00499999989 0
0.0933333337 0.00499999989 0
0.0900000036 0.00499999989 0
0.086666666 0.00499999989 0
0.0833333358 0.00499999989 0
0.0799999982 0.00499999989 0
0.0766666681 0.00499999989 0
0.0733333305 0.00499999989 0
0.0700000003 0.00499999989 0
0.0666666701 0.00499999989 0
0.0633333325 0.00499999989 0
0.0599999987 0.00499999989 0
0.0566666685 0.00499999989 0
0.0533333346 0.00499999989 0
0.0500000007 0.00499999989 0
0.0466666669 0.00499999989 0
0.043333333 0.00499999989 0
0.0399999991 0.00499999989 0
0.0366666652 0.00499999989 0
0.0333333351 0.00499999989 0
0.0299999993 0.00499999989 0
0.0266666673 0.00499999989 0
0.0233333334 0.00499999989 0
0.0199999996 0.00499999989 0
0.0166666675 0.00499999989 0
0.0133333337 0.00499999989 0
0.00999999978 0.00499999989 0
0.00666666683 0.00499999989 0
0.00333333341 0.00499999989 0
0.0 0.00499999989 0
0.100000001 0.00166666671 0
0.0966666639 0.00166666671 0
0.0933333337 0.00166666671 0
0.0900000036 0.00166666671 0
0.086666666 0.00166666671 0
0.0833333358 0.00166666671 0
0.0799999982 0.00166666671 0
0.0766666681 0.00166666671 0
0.0733333305 0.00166666671 0
0.0700000003 0.00166666671 0
0.0666666701 0.00166666671 0
0.0633333325 0.00166666671 0
0.0599999987 0.00166666671 0
0.0566666685 0.00166666671 0
0.0533333346 0.00166666671 0
0.0500000007 0.00166666671 0
0.0466666669 0.00166666671 0
0.043333333 0.00166666671 0
0.0399999991 0.00166666671 0
0.0366666652 0.00166666671 0
0.0333333351 0.00166666671 0
0.0299999993 0.00166666671 0
0.0266666673 0.00166666671 0
0.0233333334 0.00166666671 0
0.0199999996 0.00166666671 0
0.0166666675 0.00166666671 0
0.0133333337 0.00166666671 0
0.00999999978 0.00166666671 0
0.00666666683 0.00166666671 0
0.00333333341 0.00166666671 0
0.0 0.00166666671 0
0.100000001 -0.00166666671 0
0.0966666639 -0.00166666671 0
0.0933333337 -0.00166666671 0
0.0900000036 -0.00166666671 0
0.086666666 -0.00166666671 0
0.0833333358 -0.00166666671 0
0.0799999982 -0.00166666671 0
0.0766666681 -0.00166666671 0
0.0733333305 -0.00166666671 0
0.0700000003 -0.00166666671 0
0.0666666701 -0.00166666671 0
0.0633333325 -0.00166666671 0
0.0599999987 -0.00166666671 0
0.0566666685 -0.00166666671 0
0.0533333346 -0.00166666671 0
0.0500000007 -0.00166666671 0
0.0466666669 -0.00166666671 0
0.043333333 -0.00166666671 0
0.0399999991 -0.00166666671 0
0.0366666652 -0.00166666671 0
0.0333333351 -0.00166666671 0
0.0299999993 -0.00166666671 0
0.0266666673 -0.00166666671 0
0.0233333334 -0.00166666671 0
0.0199999996 -0.00166666671 0
0.0166666675 -0.00166666671 0
0.0133333337 -0.00166666671 0
0.00999999978 -0.00166666671 0
0.00666666683 -0.00166666671 0
0.00333333341 -0.00166666671 0
0.0 -0.00166666671 0
0.100000001 -0.00499999989 0
0.0966666639 -0.00499999989 0
0.0933333337 -0.00499999989 0
0.0900000036 -0.00499999989 0
0.086666666 -0.00499999989 0
0.0833333358 -0.00499999989 0
0.0799999982 -0.00499999989 0
0.0766666681 -0.00499999989 0
0.0733333305 -0.00499999989 0
0.0700000003 -0.00499999989 0
0.0666666701 -0.00499999989 0
0.0633333325 -0.00499999989 0
0.0599999987 -0.00499999989 0
0.0566666685 -0.00499999989 0
0.0533333346 -0.00499999989 0
0.0500000007 -0.00499999989 0
0.0466666669 -0.00499999989 0
0.043333333 -0.00499999989 0
0.0399999991 -0.00499999989 0
0.0366666652 -0.00499999989 0
0.0333333351 -0.00499999989 0
0.0299999993 -0.00499999989 0
0.0266666673 -0.00499999989 0
0.0233333334 -0.00499999989 0
0.0199999996 -0.00499999989 0
0.0166666675 -0.00499999989 0
0.0133333337 -0.00499999989 0
0.00999999978 -0.00499999989 0
0.00666666683 -0.00499999989 0
0.00333333341 -0.00499999989 0
0.0 -0.00499999989 0
0.100000001 -0.00833333377 0
0.0966666639 -0.00833333377 0
0.0933333337 -0.00833333377 0
0.0900000036 -0.00833333377 0
0.086666666 -0.00833333377 0
0.0833333358 -0.00833333377 0
0.0799999982 -0.00833333377 0
0.0766666681 -0.00833333377 0
0.0733333305 -0.00833333377 0
0.0700000003 -0.00833333377 0
0.0666666701 -0.00833333377 0
0.0633333325 -0.00833333377 0
0.0599999987 -0.00833333377 0
0.0566666685 -0.00833333377 0
0.0533333346 -0.00833333377 0
0.0500000007 -0.00833333377 0
0.0466666669 -0.00833333377 0
0.043333333 -0.00833333377 0
0.0399999991 -0.00833333377 0
0.0366666652 -0.00833333377 0
0.0333333351 -0.00833333377 0
0.0299999993 -0.00833333377 0
0.0266666673 -0.00833333377 0
0.0233333334 -0.00833333377 0
0.0199999996 -0.00833333377 0
0.0166666675 -0.00833333377 0
0.0133333337 -0.00833333377 0
0.00999999978 -0.00833333377 0
0.00666666683 -0.00833333377 0
0.00333333341 -0.00833333377 0
0.0 -0.00833333377 0
0.100000001 -0.0116666667 0
0.0966666639 -0.0116666667 0
0.0933333337 -0.0116666667 0
0.0900000036 -0.0116666667 0
0.086666666 -0.0116666667 0
0.0833333358 -0.0116666667 0
0.0799999982 -0.0116666667 0
0.0766666681 -0.0116666667 0
0.0733333305 -0.0116666667 0
0.0700000003 -0.0116666667 0
0.0666666701 -0.0116666667 0
0.0633333325 -0.0116666667 0
0.0599999987 -0.0116666667 0
0.0566666685 -0.0116666667 0
0.0533333346 -0.0116666667 0
0.0500000007 -0.0116666667 0
0.0466666669 -0.0116666667 0
0.043333333 -0.0116666667 0
0.0399999991 -0.0116666667 0
0.0366666652 -0.0116666667 0
0.0333333351 -0.0116666667 0
0.0299999993 -0.0116666667 0
0.0266666673 -0.0116666667 0
0.0233333334 -0.0116666667 0
0.0199999996 -0.0116666667 0
0.0166666675 -0.0116666667 0
0.0133333337 -0.0116666667 0
0.00999999978 -0.0116666667 0
0.00666666683 -0.0116666667 0
0.00333333341 -0.0116666667 0
0.0 -0.0116666667 0
0.100000001 -0.0149999997 0
0.0966666639 -0.0149999997 0
0.0933333337 -0.0149999997 0
0.0900000036 -0.0149999997 0
0.086666666 -0.0149999997 0
0.0833333358 -0.0149999997 0
0.0799999982 -0.0149999997 0
0.0766666681 -0.0149999997 0
0.0733333305 -0.0149999997 0
0.0700000003 -0.0149999997 0
0.0666666701 -0.0149999997 0
0.0633333325 -0.0149999997 0
0.0599999987 -0.0149999997 0
0.0566666685 -0.0149999997 0
0.0533333346 -0.0149999997 0
0.0500000007 -0.0149999997 0
0.0466666669 -0.0149999997 0
0.043333333 -0.0149999997 0
0.0399999991 -0.0149999997 0
0.0366666652 -0.0149999997 0
0.0333333351 -0.0149999997 0
0.0299999993 -0.0149999997 0
0.0266666673 -0.0149999997 0
0.0233333334 -0.0149999997 0
0.0199999996 -0.0149999997 0
0.0166666675 -0.0149999997 0
0.0133333337 -0.0149999997 0
0.00999999978 -0.0149999997 0
0.00666666683 -0.0149999997 0
0.00333333341 -0.0149999997 0
0.0 -0.0149999997 0
0.100000001 -0.0183333326 0
0.0966666639 -0.0183333326 0
0.0933333337 -0.0183333326 0
0.0900000036 -0.0183333326 0
0.086666666 -0.0183333326 0
0.0833333358 -0.0183333326 0
0.0799999982 -0.0183333326 0
0.0766666681 -0.0183333326 0
0.0733333305 -0.0183333326 0
0.0700000003 -0.0183333326 0
0.0666666701 -0.0183333326 0
0.0633333325 -0.0183333326 0
0.0599999987 -0.0183333326 0
0.0566666685 -0.0183333326 0
0.0533333346 -0.0183333326 0
0.0500000007 -0.0183333326 0
0.0466666669 -0.0183333326 0
0.043333333 -0.0183333326 0
0.0399999991 -0.0183333326 0
0.0366666652 -0.0183333326 0
0.0333333351 -0.0183333326 0
0.0299999993 -0.0183333326 0
0.0266666673 -0.0183333326 0
0.0233333334 -0.0183333326 0
0.0199999996 -0.0183333326 0
0.0166666675 -0.0183333326 0
0.0133333337 -0.0183333326 0
0.00999999978 -0.0183333326 0
0.00666666683 -0.0183333326 0
0.00333333341 -0.0183333326 0
0.0 -0.0183333326 0
0.100000001 -0.0216666665 0
0.0966666639 -0.0216666665 0
0.0933333337 -0.0216666665 0
0.0900000036 -0.0216666665 0
0.086666666 -0.0216666665 0
0.0833333358 -0.0216666665 0
0.0799999982 -0.0216666665 0
0.0766666681 -0.0216666665 0
0.0733333305 -0.0216666665 0
0.0700000003 -0.0216666665 0
0.0666666701 -0.0216666665 0
0.0633333325 -0.0216666665 0
0.0599999987 -0.0216666665 0
0.0566666685 -0.0216666665 0
0.0533333346 -0.0216666665 0
0.0500000007 -0.0216666665 0
0.0466666669 -0.0216666665 0
0.043333333 -0.0216666665 0
0.0399999991 -0.0216666665 0
0.0366666652 -0.0216666665 0
0.0333333351 -0.0216666665 0
0.0299999993 -0.0216666665 0
0.0266666673 -0.0216666665 0
0.0233333334 -0.0216666665 0
0.0199999996 -0.0216666665 0
0.0166666675 -0.0216666665 0
0.0133333337 -0.0216666665 0
0.00999999978 -0.0216666665 0
0.00666666683 -0.0216666665 0
0.00333333341 -0.0216666665 0
0.0 -0.0216666665 0
0.100000001 -0.0250000004 0
0.0966666639 -0.0250000004 0
0.0933333337 -0.0250000004 0
0.0900000036 -0.0250000004 0
0.086666666 -0.0250000004 0
0.0833333358 -0.0250000004 0
0.0799999982 -0.0250000004 0
0.0766666681 -0.0250000004 0
0.0733333305 -0.0250000004 0
0.0700000003 -0.0250000004 0
0.0666666701 -0.0250000004 0
0.0633333325 -0.0250000004 0
0.0599999987 -0.0250000004 0
0.0566666685 -0.0250000004 0
0.0533333346 -0.0250000004 0
0.0500000007 -0.0250000004 0
0.0466666669 -0.0250000004 0
0.043333333 -0.0250000004 0
0.0399999991 -0.0250000004 0
0.0366666652 -0.0250000004 0
0.0333333351 -0.0250000004 0
0.0299999993 -0.0250000004 0
0.0266666673 -0.0250000004 0
0.0233333334 -0.0250000004 0
0.0199999996 -0.0250000004 0
0.0166666675 -0.0250000004 0
0.0133333337 -0.0250000004 0
0.00999999978 -0.0250000004 0
0.00666666683 -0.0250000004 0
0.00333333341 -0.0250000004 0
0.0 -0.0250000004 0
0.100000001 -0.0283333343 0
0.0966666639 -0.0283333343 0
0.0933333337 -0.0283333343 0
0.0900000036 -0.0283333343 0
0.086666666 -0.0283333343 0
0.0833333358 -0.0283333343 0
0.0799999982 -0.0283333343 0
0.0766666681 -0.0283333343 0
0.0733333305 -0.0283333343 0
0.0700000003 -0.0283333343 0
0.0666666701 -0.0283333343 0
0.0633333325 -0.0283333343 0
0.0599999987 -0.0283333343 0
0.0566666685 -0.0283333343 0
0.0533333346 -0.0283333343 0
0.0500000007 -0.0283333343 0
0.0466666669 -0.0283333343 0
0.043333333 -0.0283333343 0
0.0399999991 -0.0283333343 0
0.0366666652 -0.0283333343 0
0.0333333351 -0.0283333343 0
0.0299999993 -0.0283333343 0
0.0266666673 -0.0283333343 0
0.0233333334 -0.0283333343 0
0.0199999996 -0.0283333343 0
0.0166666675 -0.0283333343 0
0.0133333337 -0.0283333343 0
0.00999999978 -0.0283333343 0
0.00666666683 -0.0283333343 0
0.00333333341 -0.0283333343 0
0.0 -0.0283333343 0
[...]
POINT_DATA 961.0
SCALARS Temp float 1
LOOKUP_TABLE default
259.1651129847119
227.37237263625616
206.50099754537843
194.2834659576474
187.8875230866654
184.87138232969343
183.57779002642062
183.06791416770648
182.8813256809259
182.8173337199543
182.79659441346618
182.79019693664063
182.78830717699353
182.78777034342406
182.7876251375845
182.78759593851436
182.78762513753284
182.78777034321803
182.78830717741138
182.79019693825245
182.79659439174438
182.81733371124724
182.88132571691628
183.0679139139637
183.57779021903508
184.87137943398113
187.88752104729684
194.28345157671941
206.50098426070988
227.3723843863686
259.16507913424044
227.37245833304752
194.50404679597958
172.9240583193997
160.28979269039522
153.67447669568247
150.5542617788022
149.21575743133945
148.68807190978376
148.49492824680445
148.42867591794783
148.40720034630039
148.40057469483702
148.39861724534524
148.39806110720377
148.39791066155007
148.39788040625973
148.39791066149593
148.3980611069875
148.39861724576647
148.40057469646047
148.40720032363106
148.42867590828925
148.4949282817774
148.68807163935995
149.21575760521898
150.55425870269596
153.67447434740006
160.28977704711133
172.92404270796882
194.50404105151966
227.37238795778202
206.50107490189717
172.92405935299166
150.87268735397214
137.95753500824827
131.19204768192293
127.99938320823033
126.62907524995833
126.08856610836504
125.89062723154773
125.82269686587124
125.80066723789881
125.79386772993098
125.79185811472172
125.79128694458504
125.79113238144187
125.79110129090454
125.79113238138437
125.79128694435464
125.79185811512166
125.79386773147047
125.8006672141621
125.82269685422106
125.89062726126754
126.08856581069695
126.62907536181196
127.99937985761677
131.19204468364464
137.9575173595621
150.872666158222
172.92404243380673
206.50098701165936
194.28354642375604
160.28979879577977
137.9575416279698
124.87203512453314
118.0135402654134
114.77496850636092
113.3840322677234
112.83501333903952
112.63382260334316
112.5647310974617
112.54231090973637
112.53538675718995
112.53333916212125
112.53275689408765
112.53259925369345
112.5325675336496
112.53259925363187
112.53275689384108
112.53333916248243
112.53538675857995
112.54231088491147
112.5647310832411
112.6338226254262
112.83501300998552
113.38403229887226
114.7749648656435
118.01353657002106
124.87201554862892
137.95751661306596
160.28977595459185
194.2834514338839
187.88762139593257
153.6744998244262
131.19207150931194
118.01355772815717
111.10298827601541
107.83798816967841
106.43482905177285
105.8806218695337
105.67739364256808
105.60755577952648
105.58487856297525
105.57787059574545
105.57579695672767
105.57520694248716
105.57504712069664
105.57501494964912
105.57504712063128
105.57520694222418
105.57579695704241
105.57787059695997
105.58487853715974
105.60755576271248
105.67739365678928
105.88062151187007
106.43482900848049
107.83798429489462
111.10298404677481
118.01353693217241
131.19204443946015
153.67447429262995
187.88752323144342
184.87148684340804
150.55428682236484
127.99940837425643
114.77498727609196
107.83798946068838
104.55915088235707
103.14937679944231
102.5922668670097
102.38786129545069
102.31757878065521
102.2947440262194
102.28768332951591
102.2855929109962
102.28499779726863
102.28483651213298
102.28480403462626
102.284836512064
102.28499779699082
102.28559291126555
102.28768333056414
102.29474399960044
102.3175787616557
102.38786130316389
102.5922664877651
103.14937670199218
104.5591468554141
107.83798491820433
114.77496584932562
127.99938035594423
150.5542601383391
184.87138734715734
183.5778972487081
149.21578519432651
126.6291034425969
113.38405432471588
106.43483374017546
103.14938024864966
101.7363295554611
101.17772819856384
100.97269539915368
100.90216760450262
100.87924305461044
100.87215137545942
100.87005081884583
100.86945254487873
100.86929033256594
100.86925765793808
100.86929033249393
100.86945254458868
100.87005081907748
100.87215137637321
100.8792430274102
100.90216758392064
100.97269540233484
101.17772780552639
101.73632942541683
103.14937613950123
106.43482904337391
113.38403261484643
126.62907502827154
149.21575805420795
183.57779722900554
183.06801454961283
148.68809731242754
126.08859343485797
112.83503501806408
105.88062633464635
102.59227014849067
101.17772804230172
100.61842121588181
100.41307996397006
100.34242686476483
100.31945474048412
100.31234607567158
100.31023978205523
100.30963966714151
100.30947690083228
100.30944410637889
100.30947690075801
100.30963966684264
100.31023978225889
100.31234607649003
100.31945471290787
100.34242684318252
100.41307996443395
100.61842081523656
101.17772789553919
102.5922660008742
105.88062157113669
112.83501319377378
126.0885648689437
148.68807000433898
183.06791433791747
182.8814195119678
148.49495201018257
125.8906543163242
112.63384442304366
105.67739837881642
102.38786489740004
100.97269557893853
100.41308030455721
100.20759866133413
100.13688619158415
100.11389062649602
100.10677327434448
100.10466394199516
100.10406281996377
100.1038997418558
100.10386687865622
100.10389974177994
100.10406281965882
100.10466394218034
100.10677327510268
100.11389059870142
100.13688616944344
100.20759866037181
100.41307990022871
100.97269542464682
102.38786073373836
105.67739358925883
112.63382255632555
125.89062569653842
148.49492464421795
182.88131923421622
182.81742800618343
148.42870010729388
125.82272386101286
112.56475279574994
105.6075604186363
102.3175823051645
100.90216771521808
100.34242713925441
100.13688612598024
100.06614749687029
100.04314117357056
100.0360196733813
100.03390883438348
100.03330719514142
100.03314395185785
100.03311105146967
100.03314395178103
100.03330719483282
100.03390883455762
100.03601967410546
100.04314114566168
100.06614747445177
100.13688612435273
100.34242673333122
100.9021675578792
102.31757813540763
105.60755561971992
112.56473091439544
125.82269522327854
148.42867272253497
182.81732770697624
182.7966994411991
148.40722614205615
125.80069452550136
112.54233265444165
105.58488321278178
102.29474755980598
100.87924317523651
100.31945502527796
100.11389057114864
100.04314118376202
100.02013024935762
100.01300689709524
100.01089535824428
100.01029346960061
100.01013014397728
100.01009722463172
100.01013014389977
100.01029346928988
100.01089535841248
100.0130068978021
100.02013022139457
100.04314116121876
100.11389056924118
100.31945461872719
100.87924301676888
102.29474338790675
105.58487841072856
112.5423107683394
125.80066588211251
148.4071987515079
182.79659913536264
182.79030259909956
148.40060064305914
125.79389510246114
112.53540856289314
105.57787529257072
102.28768689816259
100.8721515246093
100.31234638612493
100.10677324353173
100.03601970772232
100.01300692113401
100.00588279366868
100.00377094976652
100.00316894810557
100.00300558384828
100.00297265539781
100.00300558377059
100.00316894779387
100.00377094993173
100.00588279436764
100.01300689314765
100.03601968512807
100.10677324151652
100.31234597934635
100.87215136575334
102.28768272555772
105.5778704895262
112.53538667533017
125.79386645737569
148.40057325080596
182.7902022913104
182.7884022877214
148.39864180429825
125.79188534183858
112.53336104425013
105.57580170999564
102.28559650611136
100.87005097837059
100.31024009630961
100.10466391263805
100.03390886942466
100.01089538275966
100.00377095018852
100.00165898125377
100.00105693140627
100.00089355008018
100.00086061751
100.00089355000227
100.0010569310941
100.00165898141789
100.00377095088407
100.0108953547639
100.03390884681113
100.10466391058439
100.31023968945367
100.87005081938914
102.28559233328679
105.57579690665317
112.53333915625794
125.79185669626534
148.39861441156023
182.78830197938834
182.78786461538618
148.39808520115542
125.79131459363228
112.53277901950824
105.57521180461264
102.285001433828
100.86945271859577
100.30963998577955
100.1040627917555
100.03330723033858
100.01029349398553
100.00316894832045
100.00105693118275
100.00045486202472
100.00029147361373
100.00025853929311
100.00029147353581
100.00045486171236
100.00105693134628
100.00316894901465
100.01029346598621
100.03330720771835
100.10406278968908
100.30963957889914
100.86945255957598
102.28499726093837
105.57520700118445
112.53275713139463
125.79128594792368
148.39805780828544
182.7877643069041
182.7877237008051
148.39793870116367
125.79116122721766
112.53262180306668
105.57505212798799
102.28484019725644
100.8692905219698
100.30947722445235
100.10389971530877
100.03314398773614
100.01013016876703
100.00300558439393
100.00089355016884
100.00029147392233
100.00012808282689
100.00009514782899
100.0001280827489
100.0002914736099
100.00089355033211
100.00300558508748
100.01013014076655
100.03314396511368
100.10389971323843
100.30947681756477
100.86929036293922
102.2848360243488
105.57504732453675
112.53259991492027
125.79113258147295
148.39791130825853
182.7876233922772
182.78771702846245
148.39791253228162
125.79113134463853
112.53259044277154
105.5750200701521
102.28480775535395
100.86925785832979
100.30944443332864
100.10386685313325
100.033111087704
100.01009724959138
100.00297265606322
100.00086061770574
100.00025853970568
100.0000951479323
100.00006221276098
100.00009514785432
100.00025853939313
100.00086061786888
100.00297265675668
100.0100972215906
100.03311106508112
100.10386685106215
100.30944402643988
100.86925769929762
102.28480358244343
105.57501526669766
112.53256855461986
125.79110269888785
148.39788513937717
182.78761671990873
182.787746305252
148.39794285917284
125.79116248831446
112.53262219381438
105.57505225589227
102.28484023840505
100.86929053483234
100.30947722833592
100.10389971645294
100.03314398807689
100.01013016888062
100.00300558444525
100.0008935502037
100.00029147395286
100.00012808285635
100.00009514785809
100.00012808277833
100.00029147364047
100.00089355036684
100.00300558513884
100.01013014088016
100.03314396545467
100.10389971438343
100.30947682144999
100.8692903758048
102.28483606550192
105.57504745244778
112.53260030567611
125.79113384257928
148.3979154662845
182.78764599671555
182.78786919199297
148.398089410883
125.79131597229365
112.53277954393377
105.57521199135446
102.2850014978479
100.86945273946279
100.30963999231169
100.10406279376338
100.033307230984
100.010293494237
100.00316894846203
100.00105693129461
100.00045486212875
100.00029147371572
100.00025853939468
100.00029147363767
100.00045486181627
100.00105693145797
100.00316894915622
100.01029346623804
100.03330720836482
100.10406279169963
100.309639585437
100.86945258045364
102.28499732497549
105.5752071879519
112.53275765585383
125.7912873266261
148.39806201805837
182.7877688835513
182.78840216687794
148.3986419213263
125.7918861585384
112.53336144293255
105.57580187990368
102.28559657012592
100.87005100084482
100.31024010387476
100.10466391522384
100.03390887044036
100.01089538330405
100.0037709505972
100.00165898162481
100.00105693176725
100.00089355043855
100.0008606178678
100.00089355036057
100.00105693145497
100.00165898178882
100.00377095129276
100.01089535530906
100.03390884782988
100.10466391317787
100.31023969703612
100.87005084189661
102.28559239735854
105.57579707664895
112.5333395550615
125.79185751311643
148.39861452875863
182.78830185872025
182.79029323375906
148.40060082680893
125.7938953737539
112.5354088054086
105.57787541202195
102.28768694944313
100.87215154488563
100.31234639409212
100.1067732470409
100.03601970973325
100.01300692267205
100.00588279506533
100.00377095112269
100.00316894945068
100.00300558519056
100.00297265673947
100.00300558511265
100.00316894913877
100.0037709512877
100.00588279576414
100.01300689468691
100.03601968714484
100.10677324504424
100.31234598735934
100.87215138612602
102.2876827770148
105.57787060926262
112.53538691825476
125.79386672919239
148.4005734351515
182.79019292658808
182.7967090840762
148.40722666663672
125.80069487501457
112.54233281194414
105.5848833016264
102.29474760763723
100.87924320216815
100.31945504287769
100.11389058505746
100.04314119634905
100.02013026150863
100.0130069091119
100.01089537022183
100.01029348156719
100.01013015594104
100.01009723659492
100.01013015586341
100.01029348125603
100.01089537038908
100.01300690981748
100.02013023354563
100.04314117381413
100.1138905831868
100.31945463643525
100.8792430439556
102.29474343624533
105.5848785004443
112.54231092714883
125.80066623335097
148.40719927810045
182.7966087802929
182.81742991121496
148.4287015186203
125.82272409715446
112.56475290149402
105.60756047130377
102.31758232664154
100.9021677192834
100.34242713514378
100.13688611854244
100.06614748822346
100.04314116452149
100.0360196642076
100.03390882517336
100.03330718592089
100.03314394263471
100.03311104224588
100.03314394255747
100.03330718561118
100.03390882534437
100.03601966492586
100.04314113660428
100.06614746580492
100.13688611696554
100.3424267294328
100.90216756254152
102.31757815821527
105.60755567486238
112.56473102406994
125.82269546481183
148.42867414028183
182.81732961863864
182.88141911189444
148.49495167064632
125.89065451193105
112.63384466052375
105.6773985610067
102.38786503809293
100.9726956984601
100.41308041520168
100.20759876870326
100.13688629785338
100.11389073242167
100.10677338016852
100.1046640477905
100.10406292575128
100.1038998476411
100.10386698444096
100.10389984756442
100.10406292544347
100.10466404796794
100.10677338090824
100.1138907045904
100.13688627566226
100.2075987677409
100.41308001116099
100.97269554532612
102.38786087751363
105.67739377786454
112.63382280479874
125.89062590799895
148.49492432411392
182.88131885441422
183.06800885967428
148.68809627305131
126.08859374898896
112.8350351929548
105.88062637200103
102.59227011289866
101.17772797753746
100.61842114094935
100.41307988580812
100.34242678563727
100.31945466107842
100.3123459961874
100.31023970254907
100.30963958762928
100.30947682131827
100.30944402686411
100.30947682124231
100.30963958732455
100.3102397027355
100.31234599695993
100.3194546333939
100.3424267638426
100.41307988598395
100.61842074030382
101.17772783232444
102.59226597119756
105.8806216232026
112.83501339676542
126.08856522648017
148.68806902024906
183.06790870639915
183.57789304505206
149.2157893235281
126.6291054618774
113.38405574823163
106.43483490184889
103.14938132369976
101.73633060549932
101.17772924247957
100.97269644182362
100.90216864698498
100.87924409708309
100.8721524179385
100.87005186132807
100.86945358736185
100.86929137504916
100.86925870042083
100.86929137497431
100.86945358706139
100.87005186152645
100.87215241875577
100.87924406962757
100.90216862580584
100.97269644384673
101.1777288478922
101.73633047545486
103.14937722239448
106.43483023308563
113.38403410227124
126.62907715667599
149.21576233027824
183.57779318320019
184.87151853242165
150.55429126135076
127.99941028487098
114.7749882061834
107.83799016704255
104.55915154836724
103.14937746474139
102.59226753565048
102.38786196604033
102.31757945202263
102.29474469784414
102.28768400121528
102.28559358271507
102.28499846899207
102.28483718385716
102.28480470634956
102.28483718378352
102.28499846869693
102.2855935829274
102.28768400208695
102.29474467071756
102.3175794316923
102.3878619706709
102.59226715049009
103.14937735944777
104.55914752142408
107.83798566193065
114.77496690161281
127.99938251427596
150.5542649390181
184.87141943602376
187.88761641488716
153.67449937647913
131.19206876746918
118.01355487773273
111.1029855527945
107.83798554569817
106.43482647429043
105.8806193102091
105.6773910894132
105.60755322825028
105.58487601221766
105.57786804511808
105.57579440612986
105.57520439189517
105.57504457010532
105.57501239905636
105.57504457003313
105.5752043916065
105.57579440635658
105.57786804604713
105.58487598553062
105.60755320896101
105.67739109721867
105.88061893783365
106.4348264029592
107.8379816335413
111.102981323553
118.01353425239009
131.19204218367366
153.67447467638144
187.8875192007036
194.2835415353723
160.2897978580242
137.95754402201527
124.87203927330494
118.01354523702369
114.77497381084243
113.38403769953648
112.83501881540766
112.63382809414313
112.56473659261324
112.54231640612001
112.53539225390321
112.53334465891848
112.53276239090492
112.53260475051496
112.53257303047009
112.53260475044462
112.5327623906238
112.53334465915766
112.53539225488366
112.5423163799876
112.56473657446176
112.63382810523242
112.83501845825184
113.3840376667751
114.77497004792755
118.01354137098656
124.87201969740093
137.95751979753794
160.2897767543233
194.28344881011023
206.50104845439304
172.92404004886814
150.87267612266106
137.95752698751247
131.19204083547027
127.9993768213096
126.62906902711687
126.08855993978443
125.89062107950565
125.82269071850827
125.80066109177
125.79386158410664
125.79185196896756
125.79128079884566
125.79112623570484
125.7910951451656
125.79112623563664
125.79128079857308
125.79185196921522
125.79386158512179
125.80066106630768
125.82269070146626
125.89062109337134
126.08855959870996
126.62906902984494
127.9993732229761
131.19203735113075
137.95750854839835
150.87265492690753
172.92402729340202
206.5009655304149
227.37243243201837
194.5040578147589
172.92407877668612
160.28981616294732
153.67450170324216
150.55428741620773
149.21578330646778
148.68809786666532
148.49495422976761
148.4287019087038
148.40722633925833
148.40060068838804
148.3986432390496
148.39808710094607
148.39793665530073
148.3979064000095
148.39793665523476
148.39808710068257
148.3986432392993
148.4006006894122
148.40722631458007
148.42870189262484
148.49495424530855
148.68809754095278
149.21578333347347
150.55428397841482
153.67449852325282
160.28979878217282
172.92405900151863
194.5040520702798
227.37239002136525
259.1650952803857
227.37237066593582
206.50099251848255
194.28346358761505
187.88752199088526
184.87138178707778
183.57778968885623
183.06791389908122
182.88132543354615
182.81733347865978
182.7965941738052
182.7901966973935
182.7883069378456
182.78777010429854
182.78762489846312
182.78759569939126
182.78762489839963
182.7877701040449
182.7883069380897
182.79019669839434
182.79659415002325
182.81733346331896
182.88132544926634
183.06791358692394
183.5777897236206
184.8713784914849
187.8875190012026
194.28344694208076
206.50097426753837
227.37235445144174
259.1650614299435
