# vtk DataFile Version 2.0
Unstructured Grid Example
ASCII
DATASET UNSTRUCTURED_GRID

POINTS 961.0 float
0.100000001 0.00499999989 0
0.0966666639 0.00499999989 0
0.0933333337 0.00499999989 0
0.0900000036 0.00499999989 0
0.086666666 0.00499999989 0
0.0833333358 0.00499999989 0
0.0799999982 0.00499999989 0
0.0766666681 0.00499999989 0
0.0733333305 0.00499999989 0
0.0700000003 0.00499999989 0
0.0666666701 0.00499999989 0
0.0633333325 0.00499999989 0
0.0599999987 0.00499999989 0
0.0566666685 0.00499999989 0
0.0533333346 0.00499999989 0
0.0500000007 0.00499999989 0
0.0466666669 0.00499999989 0
0.043333333 0.00499999989 0
0.0399999991 0.00499999989 0
0.0366666652 0.00499999989 0
0.0333333351 0.00499999989 0
0.0299999993 0.00499999989 0
0.0266666673 0.00499999989 0
0.0233333334 0.00499999989 0
0.0199999996 0.00499999989 0
0.0166666675 0.00499999989 0
0.0133333337 0.00499999989 0
0.00999999978 0.00499999989 0
0.00666666683 0.00499999989 0
0.00333333341 0.00499999989 0
0.0 0.00499999989 0
0.100000001 0.00166666671 0
0.0966666639 0.00166666671 0
0.0933333337 0.00166666671 0
0.0900000036 0.00166666671 0
0.086666666 0.00166666671 0
0.0833333358 0.00166666671 0
0.0799999982 0.00166666671 0
0.0766666681 0.00166666671 0
0.0733333305 0.00166666671 0
0.0700000003 0.00166666671 0
0.0666666701 0.00166666671 0
0.0633333325 0.00166666671 0
0.0599999987 0.00166666671 0
0.0566666685 0.00166666671 0
0.0533333346 0.00166666671 0
0.0500000007 0.00166666671 0
0.0466666669 0.00166666671 0
0.043333333 0.00166666671 0
0.0399999991 0.00166666671 0
0.0366666652 0.00166666671 0
0.0333333351 0.00166666671 0
0.0299999993 0.00166666671 0
0.0266666673 0.00166666671 0
0.0233333334 0.00166666671 0
0.0199999996 0.00166666671 0
0.0166666675 0.00166666671 0
0.0133333337 0.00166666671 0
0.00999999978 0.00166666671 0
0.00666666683 0.00166666671 0
0.00333333341 0.00166666671 0
0.0 0.00166666671 0
0.100000001 -0.00166666671 0
0.0966666639 -0.00166666671 0
0.0933333337 -0.00166666671 0
0.0900000036 -0.00166666671 0
0.086666666 -0.00166666671 0
0.0833333358 -0.00166666671 0
0.0799999982 -0.00166666671 0
0.0766666681 -0.00166666671 0
0.0733333305 -0.00166666671 0
0.0700000003 -0.00166666671 0
0.0666666701 -0.00166666671 0
0.0633333325 -0.00166666671 0
0.0599999987 -0.00166666671 0
0.0566666685 -0.00166666671 0
0.0533333346 -0.00166666671 0
0.0500000007 -0.00166666671 0
0.0466666669 -0.00166666671 0
0.043333333 -0.00166666671 0
0.0399999991 -0.00166666671 0
0.0366666652 -0.00166666671 0
0.0333333351 -0.00166666671 0
0.0299999993 -0.00166666671 0
0.0266666673 -0.00166666671 0
0.0233333334 -0.00166666671 0
0.0199999996 -0.00166666671 0
0.0166666675 -0.00166666671 0
0.0133333337 -0.00166666671 0
0.00999999978 -0.00166666671 0
0.00666666683 -0.00166666671 0
0.00333333341 -0.00166666671 0
0.0 -0.00166666671 0
0.100000001 -0.00499999989 0
0.0966666639 -0.00499999989 0
0.0933333337 -0.00499999989 0
0.0900000036 -0.00499999989 0
0.086666666 -0.00499999989 0
0.0833333358 -0.00499999989 0
0.0799999982 -0.00499999989 0
0.0766666681 -0.00499999989 0
0.0733333305 -0.00499999989 0
0.0700000003 -0.00499999989 0
0.0666666701 -0.00499999989 0
0.0633333325 -0.00499999989 0
0.0599999987 -0.00499999989 0
0.0566666685 -0.00499999989 0
0.0533333346 -0.00499999989 0
0.0500000007 -0.00499999989 0
0.0466666669 -0.00499999989 0
0.043333333 -0.00499999989 0
0.0399999991 -0.00499999989 0
0.0366666652 -0.00499999989 0
0.0333333351 -0.00499999989 0
0.0299999993 -0.00499999989 0
0.0266666673 -0.00499999989 0
0.0233333334 -0.00499999989 0
0.0199999996 -0.00499999989 0
0.0166666675 -0.00499999989 0
0.0133333337 -0.00499999989 0
0.00999999978 -0.00499999989 0
0.00666666683 -0.00499999989 0
0.00333333341 -0.00499999989 0
0.0 -0.00499999989 0
0.100000001 -0.00833333377 0
0.0966666639 -0.00833333377 0
0.0933333337 -0.00833333377 0
0.0900000036 -0.00833333377 0
0.086666666 -0.00833333377 0
0.0833333358 -0.00833333377 0
0.0799999982 -0.00833333377 0
0.0766666681 -0.00833333377 0
0.0733333305 -0.00833333377 0
0.0700000003 -0.00833333377 0
0.0666666701 -0.00833333377 0
0.0633333325 -0.00833333377 0
0.0599999987 -0.00833333377 0
0.0566666685 -0.00833333377 0
0.0533333346 -0.00833333377 0
0.0500000007 -0.00833333377 0
0.0466666669 -0.00833333377 0
0.043333333 -0.00833333377 0
0.0399999991 -0.00833333377 0
0.0366666652 -0.00833333377 0
0.0333333351 -0.00833333377 0
0.0299999993 -0.00833333377 0
0.0266666673 -0.00833333377 0
0.0233333334 -0.00833333377 0
0.0199999996 -0.00833333377 0
0.0166666675 -0.00833333377 0
0.0133333337 -0.00833333377 0
0.00999999978 -0.00833333377 0
0.00666666683 -0.00833333377 0
0.00333333341 -0.00833333377 0
0.0 -0.00833333377 0
0.100000001 -0.0116666667 0
0.0966666639 -0.0116666667 0
0.0933333337 -0.0116666667 0
0.0900000036 -0.0116666667 0
0.086666666 -0.0116666667 0
0.0833333358 -0.0116666667 0
0.0799999982 -0.0116666667 0
0.0766666681 -0.0116666667 0
0.0733333305 -0.0116666667 0
0.0700000003 -0.0116666667 0
0.0666666701 -0.0116666667 0
0.0633333325 -0.0116666667 0
0.0599999987 -0.0116666667 0
0.0566666685 -0.0116666667 0
0.0533333346 -0.0116666667 0
0.0500000007 -0.0116666667 0
0.0466666669 -0.0116666667 0
0.043333333 -0.0116666667 0
0.0399999991 -0.0116666667 0
0.0366666652 -0.0116666667 0
0.0333333351 -0.0116666667 0
0.0299999993 -0.0116666667 0
0.0266666673 -0.0116666667 0
0.0233333334 -0.0116666667 0
0.0199999996 -0.0116666667 0
0.0166666675 -0.0116666667 0
0.0133333337 -0.0116666667 0
0.00999999978 -0.0116666667 0
0.00666666683 -0.0116666667 0
0.00333333341 -0.0116666667 0
0.0 -0.0116666667 0
0.100000001 -0.0149999997 0
0.0966666639 -0.0149999997 0
0.0933333337 -0.0149999997 0
0.0900000036 -0.0149999997 0
0.086666666 -0.0149999997 0
0.0833333358 -0.0149999997 0
0.0799999982 -0.0149999997 0
0.0766666681 -0.0149999997 0
0.0733333305 -0.0149999997 0
0.0700000003 -0.0149999997 0
0.0666666701 -0.0149999997 0
0.0633333325 -0.0149999997 0
0.0599999987 -0.0149999997 0
0.0566666685 -0.0149999997 0
0.0533333346 -0.0149999997 0
0.0500000007 -0.0149999997 0
0.0466666669 -0.0149999997 0
0.043333333 -0.0149999997 0
0.0399999991 -0.0149999997 0
0.0366666652 -0.0149999997 0
0.0333333351 -0.0149999997 0
0.0299999993 -0.0149999997 0
0.0266666673 -0.0149999997 0
0.0233333334 -0.0149999997 0
0.0199999996 -0.0149999997 0
0.0166666675 -0.0149999997 0
0.0133333337 -0.0149999997 0
0.00999999978 -0.0149999997 0
0.00666666683 -0.0149999997 0
0.00333333341 -0.0149999997 0
0.0 -0.0149999997 0
0.100000001 -0.0183333326 0
0.0966666639 -0.0183333326 0
0.0933333337 -0.0183333326 0
0.0900000036 -0.0183333326 0
0.086666666 -0.0183333326 0
0.0833333358 -0.0183333326 0
0.0799999982 -0.0183333326 0
0.0766666681 -0.0183333326 0
0.0733333305 -0.0183333326 0
0.0700000003 -0.0183333326 0
0.0666666701 -0.0183333326 0
0.0633333325 -0.0183333326 0
0.0599999987 -0.0183333326 0
0.0566666685 -0.0183333326 0
0.0533333346 -0.0183333326 0
0.0500000007 -0.0183333326 0
0.0466666669 -0.0183333326 0
0.043333333 -0.0183333326 0
0.0399999991 -0.0183333326 0
0.0366666652 -0.0183333326 0
0.0333333351 -0.0183333326 0
0.0299999993 -0.0183333326 0
0.0266666673 -0.0183333326 0
0.0233333334 -0.0183333326 0
0.0199999996 -0.0183333326 0
0.0166666675 -0.0183333326 0
0.0133333337 -0.0183333326 0
0.00999999978 -0.0183333326 0
0.00666666683 -0.0183333326 0
0.00333333341 -0.0183333326 0
0.0 -0.0183333326 0
0.100000001 -0.0216666665 0
0.0966666639 -0.0216666665 0
0.0933333337 -0.0216666665 0
0.0900000036 -0.0216666665 0
0.086666666 -0.0216666665 0
0.0833333358 -0.0216666665 0
0.0799999982 -0.0216666665 0
0.0766666681 -0.0216666665 0
0.0733333305 -0.0216666665 0
0.0700000003 -0.0216666665 0
0.0666666701 -0.0216666665 0
0.0633333325 -0.0216666665 0
0.0599999987 -0.0216666665 0
0.0566666685 -0.0216666665 0
0.0533333346 -0.0216666665 0
0.0500000007 -0.0216666665 0
0.0466666669 -0.0216666665 0
0.043333333 -0.0216666665 0
0.0399999991 -0.0216666665 0
0.0366666652 -0.0216666665 0
0.0333333351 -0.0216666665 0
0.0299999993 -0.0216666665 0
0.0266666673 -0.0216666665 0
0.0233333334 -0.0216666665 0
0.0199999996 -0.0216666665 0
0.0166666675 -0.0216666665 0
0.0133333337 -0.0216666665 0
0.00999999978 -0.0216666665 0
0.00666666683 -0.0216666665 0
0.00333333341 -0.0216666665 0
0.0 -0.0216666665 0
0.100000001 -0.0250000004 0
0.0966666639 -0.0250000004 0
0.0933333337 -0.0250000004 0
0.0900000036 -0.0250000004 0
0.086666666 -0.0250000004 0
0.0833333358 -0.0250000004 0
0.0799999982 -0.0250000004 0
0.0766666681 -0.0250000004 0
0.0733333305 -0.0250000004 0
0.0700000003 -0.0250000004 0
0.0666666701 -0.0250000004 0
0.0633333325 -0.0250000004 0
0.0599999987 -0.0250000004 0
0.0566666685 -0.0250000004 0
0.0533333346 -0.0250000004 0
0.0500000007 -0.0250000004 0
0.0466666669 -0.0250000004 0
0.043333333 -0.0250000004 0
0.0399999991 -0.0250000004 0
0.0366666652 -0.0250000004 0
0.0333333351 -0.0250000004 0
0.0299999993 -0.0250000004 0
0.0266666673 -0.0250000004 0
0.0233333334 -0.0250000004 0
0.0199999996 -0.0250000004 0
0.0166666675 -0.0250000004 0
0.0133333337 -0.0250000004 0
0.00999999978 -0.0250000004 0
0.00666666683 -0.0250000004 0
0.00333333341 -0.0250000004 0
0.0 -0.0250000004 0
0.100000001 -0.0283333343 0
0.0966666639 -0.0283333343 0
0.0933333337 -0.0283333343 0
0.0900000036 -0.0283333343 0
0.086666666 -0.0283333343 0
0.0833333358 -0.0283333343 0
0.0799999982 -0.0283333343 0
0.0766666681 -0.0283333343 0
0.0733333305 -0.0283333343 0
0.0700000003 -0.0283333343 0
0.0666666701 -0.0283333343 0
0.0633333325 -0.0283333343 0
0.0599999987 -0.0283333343 0
0.0566666685 -0.0283333343 0
0.0533333346 -0.0283333343 0
0.0500000007 -0.0283333343 0
0.0466666669 -0.0283333343 0
0.043333333 -0.0283333343 0
0.0399999991 -0.0283333343 0
0.0366666652 -0.0283333343 0
0.0333333351 -0.0283333343 0
0.0299999993 -0.0283333343 0
0.0266666673 -0.0283333343 0
0.0233333334 -0.0283333343 0
0.0199999996 -0.0283333343 0
0.0166666675 -0.0283333343 0
0.0133333337 -0.0283333343 0
0.00999999978 -0.0283333343 0
0.00666666683 -0.0283333343 0
0.00333333341 -0.0283333343 0
0.0 -0.0283333343 0
[...]
POINT_DATA 961.0
SCALARS Temp float 1
LOOKUP_TABLE default
259.1651129847118
227.37237263625622
206.50099754537837
194.28346595764737
187.88752308666537
184.87138232969343
183.5777900264206
183.06791416770636
182.88132568092578
182.8173337199542
182.7965944134661
182.7901969366406
182.78830717699338
182.78777034342392
182.78762513758446
182.78759593851433
182.78762513753279
182.7877703432181
182.7883071774115
182.79019693825234
182.79659439174432
182.81733371124727
182.88132571691634
183.0679139139637
183.57779021903508
184.8713794339812
187.88752104729687
194.28345157671936
206.5009842607097
227.3723843863684
259.1650791342402
227.37245833304732
194.5040467959797
172.9240583193997
160.28979269039516
153.6744766956825
150.55426177880216
149.21575743133948
148.6880719097837
148.49492824680436
148.4286759179477
148.40720034630024
148.40057469483693
148.39861724534515
148.3980611072037
148.39791066155
148.3978804062597
148.3979106614959
148.39806110698746
148.39861724576653
148.4005746964605
148.407200323631
148.4286759082893
148.4949282817774
148.6880716393599
149.21575760521898
150.554258702696
153.67447434739998
160.28977704711127
172.92404270796865
194.50404105151952
227.37238795778188
206.50107490189725
172.92405935299158
150.8726873539721
137.95753500824821
131.1920476819229
127.99938320823026
126.62907524995823
126.08856610836499
125.89062723154758
125.82269686587111
125.80066723789875
125.79386772993085
125.79185811472162
125.79128694458493
125.79113238144176
125.79110129090441
125.7911323813843
125.79128694435465
125.79185811512157
125.79386773147041
125.80066721416205
125.82269685422092
125.8906272612675
126.08856581069684
126.6290753618119
127.99937985761672
131.19204468364453
137.957517359562
150.87266615822182
172.92404243380653
206.50098701165913
194.2835464237558
160.2897987957796
137.95754162796956
124.8720351245329
118.01354026541321
114.77496850636072
113.38403226772316
112.83501333903925
112.63382260334286
112.56473109746139
112.54231090973603
112.53538675718964
112.53333916212088
112.53275689408734
112.53259925369312
112.53256753364934
112.5325992536316
112.53275689384084
112.53333916248228
112.53538675857975
112.54231088491123
112.5647310832408
112.63382262542592
112.83501300998522
113.38403229887193
114.77496486564321
118.01353657002082
124.87201554862864
137.95751661306562
160.2897759545915
194.28345143388358
187.88762139593152
153.6744998244252
131.19207150931092
118.01355772815609
111.10298827601427
107.83798816967729
106.43482905177169
105.88062186953245
105.67739364256681
105.60755577952523
105.58487856297397
105.5778705957442
105.57579695672644
105.57520694248586
105.57504712069539
105.57501494964788
105.57504712063005
105.57520694222293
105.57579695704118
105.57787059695877
105.58487853715852
105.60755576271126
105.677393656788
105.88062151186881
106.43482900847921
107.8379842948934
111.10298404677359
118.01353693217123
131.19204443945893
153.67447429262882
187.88752323144226
184.87148684340323
150.55428682235998
127.9994083742514
114.77498727608675
107.83798946068308
104.55915088235167
103.14937679943678
102.5922668670041
102.38786129544509
102.31757878064961
102.29474402621369
102.2876833295102
102.28559291099052
102.28499779726296
102.28483651212728
102.28480403462059
102.28483651205825
102.28499779698508
102.28559291125987
102.28768333055848
102.29474399959483
102.31757876165008
102.3878613031582
102.59226648775947
103.14937670198653
104.55914685540853
107.8379849181988
114.77496584932024
127.99938035593895
150.55426013833394
184.87138734715234
183.5778972486865
149.2157851943042
126.62910344257386
113.38405432469223
106.43483374015129
103.14938024862504
101.73632955543617
101.17772819853866
100.9726953991284
100.90216760447714
100.87924305458488
100.87215137543376
100.87005081882018
100.86945254485306
100.86929033254025
100.86925765791239
100.8692903324682
100.86945254456298
100.8700508190517
100.8721513763475
100.87924302738453
100.90216758389504
100.97269540230926
101.1777278055009
101.73632942539146
103.149376139476
106.43482904334904
113.38403261482196
126.6290750282476
149.21575805418465
183.57779722898317
183.0680145495163
148.6880973123274
126.08859343475467
112.83503501795812
105.88062633453818
102.59227014838069
101.17772804219042
100.61842121576939
100.41307996385687
100.34242686465112
100.31945474037
100.3123460755572
100.31023978194068
100.3096396670269
100.30947690071754
100.30944410626412
100.30947690064325
100.30963966672785
100.31023978214405
100.31234607637528
100.31945471279312
100.34242684306791
100.41307996431948
100.6184208151224
101.1777278954255
102.59226600076137
105.88062157102509
112.83501319366393
126.08856486883624
148.68807000423448
183.06791433781655
182.88141951154026
148.49495200973905
125.89065431586675
112.63384442257454
105.67739837833747
102.38786489691336
100.97269557844575
100.41308030405989
100.20759866083348
100.13688619108115
100.11389062599143
100.10677327383888
100.10466394148892
100.10406281945708
100.1038997413489
100.10386687814915
100.10389974127285
100.10406281915165
100.10466394167315
100.10677327459553
100.11389059819437
100.13688616893668
100.20759865986562
100.41307989972361
100.97269542414382
102.3878607332388
105.67739358876436
112.6338225558385
125.89062569606138
148.494924643754
182.88131923376847
182.817428004312
148.42870010535225
125.82272385901062
112.56475279369639
105.60756041654068
102.31758230303524
100.90216771306285
100.34242713707962
100.13688612379143
100.06614749467185
100.04314117136555
100.03601967117224
100.0339088321719
100.03330719292839
100.0331439496439
100.03311104925535
100.03314394956638
100.03330719261795
100.03390883234262
100.0360196718904
100.04314114344692
100.0661474722377
100.13688612214078
100.34242673112372
100.90216755567982
102.31757813322183
105.60755561755545
112.56473091226209
125.82269522118847
148.42867272050162
182.81732770501407
182.7966994331129
148.407226133667
125.80069451685071
112.54233264557104
105.58488320373085
102.29474755061176
100.87924316593215
100.31945501589205
100.11389056170462
100.04314117427833
100.02013023984794
100.01300688756935
100.01089534870869
100.01029346005946
100.0101301344331
100.01009721508596
100.01013013435292
100.0102934597422
100.01089534886405
100.01300688825314
100.02013021184581
100.04314115167247
100.1138905597021
100.31945460920437
100.87924300727724
102.29474337846928
105.5848784013779
112.54231075911859
125.80066587307402
148.40719874271207
182.7965991268738
182.7903025646553
148.40060060732546
125.79389506561716
112.53540852511678
105.57787525403373
102.28768685902432
100.87215148501264
100.31234634619183
100.10677320336202
100.03601966739333
100.01300688070289
100.00588275317492
100.00377090923635
100.00316890755522
100.00300554328717
100.00297261483084
100.00300554319999
100.00316890722016
100.00377090935481
100.00588275378743
100.01300685256611
100.03601964455237
100.10677320096373
100.31234593885038
100.87215132537376
102.28768268538882
105.57787044970463
112.5353866360393
125.79386641884338
148.40057321329544
182.79020225510484
182.78840214327303
148.39864165444672
125.79188518734254
112.5333608858653
105.57580154845098
102.2855963420845
100.87005081246633
100.3102399290429
100.10466374442588
100.03390870058678
100.01089521352799
100.00377078072148
100.0016588116534
100.00105676173403
100.00089338037074
100.00086044778112
100.00089338026119
100.00105676134199
100.00165881165212
100.00377078110186
100.01089518496849
100.03390867702286
100.10466374086097
100.31023951991952
100.87005065027373
102.28559216496716
105.57579673969146
112.53333899142345
125.79185653452895
148.39861425405613
182.78830182734401
182.78786401987418
148.3980845833826
125.79131395675847
112.53277836668602
105.57521113888805
102.28500075803437
100.8694520352549
100.30963929702696
100.10406209930392
100.0333065354845
100.01029279765213
100.00316825112554
100.00105623351362
100.00045416410858
100.00029077557436
100.0002578411913
100.00029077539489
100.00045416353282
100.00105623311364
100.00316825070891
100.01029276760087
100.03330650930215
100.10406209142296
100.30963888121848
100.86945186333661
102.28499656760845
105.5752063130244
112.53275645157069
125.79128528050224
148.39805715807407
182.78776367914148
182.78772129136948
148.3979362017125
125.79115865065467
112.53261916229901
105.57504943551665
102.28483746471905
100.86928775970007
100.30947444114709
100.10389691786864
100.03314118130426
100.01012735693426
100.00300276950377
100.00089073364947
100.00028865658423
100.00012526509636
100.00009232990708
100.00012526470783
100.00028865544134
100.00089073196894
100.00300276642416
100.01012732171351
100.03314114573689
100.10389689404627
100.30947399999428
100.86928755005724
102.2848332217009
105.5750445409838
112.53259716321581
125.7911298783223
148.39790867368032
182.7876208482586
182.78770747975236
148.39790262700163
125.79112113433983
112.53257997920261
105.57500940361305
102.28479693273734
100.86924692117815
100.30943341635519
100.1038557835442
100.03309998542144
100.01008612820777
100.00296152420599
100.00084948046252
100.00024739986105
100.00008400689315
100.00005107116442
100.00008400591342
100.00024739705479
100.0008494748605
100.0029615126075
100.01008607575504
100.03309991736656
100.10385570263445
100.30943288168673
100.8692465686866
102.2847924861814
105.57500423853013
112.53255764467691
125.79109197433398
148.39787468194373
182.78760662017854
182.78770932170488
148.39790449500137
125.79112294446546
112.53258167300932
105.57501095616905
102.28479834480221
100.8692482108694
100.30943460952693
100.10385690748622
100.0331010640515
100.01008717969961
100.0029625607846
100.00085050949778
100.00024842535962
100.00008503080598
100.00005209427066
100.00008502825482
100.00024841795437
100.00085049252515
100.00296252327514
100.01008707239566
100.03310088814943
100.10385662973084
100.30943374137092
100.86924733388712
102.28479313228083
105.57500475221391
112.53255803007373
125.79109225519151
148.3978748935762
182.7876068042605
182.78772955862868
148.39794456534244
125.79116667641729
112.5326265716413
105.575056103936
102.28484340891403
100.86929307787574
100.30947927413624
100.10390141093141
100.03314545796452
100.01013150790716
100.0030068536387
100.00089478511039
100.00029269325141
100.00012929536902
100.00009635705035
100.00012928891269
100.00029267392614
100.00089473713109
100.00300674171473
100.01013123500358
100.03314494089204
100.10390048336141
100.30947726250345
100.86929034212257
102.28483540487683
105.57504602626199
112.53259796223557
125.79113010761496
148.39790854612102
182.78762060064614
182.7878897906494
148.39811041505195
125.79133832076793
112.53280014430497
105.57522997100428
102.28501673462236
100.86946559571349
100.30965104032532
100.10407261536785
100.03331630226457
100.01030214875189
100.00317739171041
100.00106527626583
100.00046316478733
100.00029975901815
100.00026681667575
100.00029974353477
100.00046311667518
100.0010651493206
100.00317707950848
100.01030140523851
100.03331476413477
100.10406964778846
100.30964528127396
100.86945653500848
102.2849989234741
105.57520592332938
112.53275325491286
125.79127979203547
148.39805021164
182.78775648940584
182.78847227182462
148.3987118329619
125.79194826249446
112.53341388669733
105.5758430554668
102.28562697200017
100.87007253030698
100.31025519974602
100.10467485029517
100.03391738594476
100.0109026256231
100.00377758296386
100.00166534608957
100.00106318729948
100.00089976382179
100.00086681297503
100.00089972900406
100.00106307475848
100.00166503260652
100.00377676963785
100.01090063392235
100.03391298129192
100.10466584072553
100.31023778728719
100.87004293615672
102.28557613129647
105.57577051538837
112.53330203073095
125.79181035636726
148.39856331012857
182.78824976002664
182.7904664022873
148.4007504602946
125.79401882556105
112.535492633339
105.57791553846303
102.28768709205595
100.87212020184354
100.31229328317845
100.10670677042962
100.03594588419138
100.01292945171015
100.00580367957524
100.00369115479417
100.00308889153102
100.00292543156267
100.00289246415056
100.00292535849837
100.00308864595452
100.003690435118
100.00580170978566
100.01292439872785
100.03593400403683
100.10668103909138
100.31224178637635
100.8720275065553
102.28753033294727
105.5776819270348
112.53515896518773
125.79360448971349
148.40029065468642
182.78992818398478
182.7968823787252
148.40738371127728
125.80074493821927
112.54223120546618
105.58462064429679
102.29434387050699
100.87873352052713
100.31887588402564
100.1132711689208
100.04250097304953
100.01948035098928
100.01235289231914
100.01023975029574
100.00963727818217
100.00947374990689
100.0094407529359
100.00947360714352
100.00963678011767
100.01023821959848
100.01234847889276
100.01946842029709
100.04247117873017
100.11320267819
100.31873162877382
100.87845904034576
102.2938664216859
105.583878749492
112.54117443685068
125.79940809542931
148.40587020979666
182.7952703275249
182.8168381787767
148.4279415432864
125.82154740165848
112.5630184168626
105.60526116088157
102.31481144877752
100.89906126131206
100.33911342426981
100.13345988591115
100.06266688170122
100.03963686262163
100.03250591805808
100.0303915917458
100.02978874507319
100.02962510163542
100.02959205659688
100.02962484211795
100.02978780794274
100.03038858284071
100.03249680633674
100.03961089865035
100.06259808476081
100.13329166654925
100.33873736029915
100.89830177986808
102.31342696029037
105.60300898999469
112.55972766141447
125.8172790141897
148.4230218029141
182.81173453109832
182.8753953279811
148.48819979667846
125.882357111166
112.62360245250329
105.66528283671768
102.37426847725885
100.95810871364968
100.39792243372672
100.19215229580794
100.121309959869
100.09826136139951
100.09112405790712
100.08900772130102
100.08840427888825
100.08824046267053
100.0882073469002
100.0882400237876
100.08840264432811
100.08900226283464
100.0911067712109
100.09820958903309
100.12116481682456
100.1917749062155
100.3970226884607
100.956169296935
102.37051981907327
105.6588532760964
112.61383083090993
125.86928496623214
148.47283245141287
182.85950571490906
183.036596776514
148.65385899621674
126.04898777399093
112.78903367512322
105.82879666659636
102.53611781751674
101.11888892598706
100.55814898005974
100.35213758356157
100.2812029292127
100.2581225053948
100.25097512839893
100.24885582384094
100.24825155718523
100.24808751528064
100.24805430643266
100.24808682437356
100.24824891431196
100.2488466908017
100.25094503691773
100.25802824340653
100.28092468550201
100.35137077899861
100.55619930518746
101.11438225339138
102.52679362074068
105.81176935783438
112.76181384514683
126.0111502196296
148.60830920470056
182.98925919342864
183.44930963928604
149.07720104985796
126.47300827408766
113.20825266049594
106.2421812198953
102.94517793718876
101.52553436823781
100.96371063652815
100.75727844542509
100.68619801597386
100.66307151789034
100.65591066282062
100.65378767125029
100.65318245265506
100.653018166641
100.6529848507771
100.65301715295976
100.65317848957035
100.65377357720308
100.65586263230652
100.6629150979491
100.68571497918609
100.75587603335812
100.95992399776222
101.51615938197558
102.92424355153788
106.20102128000696
113.13808566009119
126.37063067293359
148.95011712157955
183.31602784881125
184.42290005102123
150.07315972935197
127.46489405124238
114.18370885648388
107.20219734131663
103.89558137514031
102.47154191271342
101.9079983128933
101.70097173374766
101.62970512300603
101.60652506808637
101.59934994097247
101.59722341290345
101.59661738050013
101.5964529091185
101.59641949155085
101.59645151999933
101.5966118636984
101.59720334617684
101.59927964881477
101.60628867175538
101.62894710491645
101.69867155309093
101.9014550899968
102.45430004434087
103.85413968734554
107.11317983254912
114.01925693596164
127.20848130223017
149.74184537251125
184.07020120504717
186.52038872149635
152.21158052392306
129.5734967590697
116.24530664671818
109.22819980663812
105.9058177202815
104.47569184861713
103.91009390501142
103.70244311343693
103.63100504257899
103.60778245329048
103.60059793262545
103.598469646537
103.59786339081924
103.59769892127105
103.59766543775838
103.59769713321856
103.59785625236096
103.5984432724885
103.60050359379093
103.60745712664455
103.62993056624948
103.69906636880239
103.90007566134972
104.44790502919297
105.83459497709157
109.06240315065727
115.9020382889759
128.98925328584377
151.40476903898755
185.64733991810388
190.6442141398693
156.35502501646232
133.61187277266586
120.14787714421568
113.0823401258381
109.74248276153827
108.30698503024296
107.73992683962351
107.53194411022189
107.46045105610895
107.43722695979945
107.43004626824538
107.42792020407714
107.42731493464821
107.42715084183516
107.42711736466602
107.42714864659949
107.42730631279467
107.42788822757575
107.42993010231575
107.43681927473763
107.45907566371604
107.52751108467773
107.72636601067325
108.26791792927285
109.63742168778863
112.82109646573628
119.55748174937497
132.40628469483445
154.5500122889843
188.56873381784746
197.91127539105736
163.7528644823716
140.3280262430981
126.75253704935763
119.65325815976726
116.3072223519578
114.8714347281932
114.30494662665447
114.0973619743906
114.02605663395508
114.00290725495344
113.99575251883867
113.99363468276414
113.99303253964074
113.99286964982271
113.99283592120088
113.99286678053465
113.99302289159229
113.99359889458759
113.9956215492024
114.00244153227858
114.02446758409484
114.09216017354841
114.28873695898662
114.82364530512058
116.17478579382906
119.31063314092198
125.92562654188974
138.49628395350078
159.66157083083004
193.39789382958938
213.09336060038913
173.6425206163005
150.3141235215429
136.74529461696045
129.6802311046185
126.35350555512218
124.92706924700768
124.3645393906643
124.15845276019256
124.08769038054695
124.06472603406704
124.05761702570364
124.05551617941713
124.05492566061237
124.05476073852256
124.05472717738161
124.05475784581662
124.05491227139501
124.05548259442305
124.05748148923863
124.06424098924906
124.08603009361478
124.15301041885911
124.34744093153395
124.87629138225537
126.21138302648889
129.30709289127182
135.82982440513277
148.1631582225785
169.00984308253535
196.65315217961438
