# vtk DataFile Version 2.0
Unstructured Grid Example
ASCII
DATASET UNSTRUCTURED_GRID

POINTS 961 float
0.100000001 0.00499999989 0
0.0966666639 0.00499999989 0
0.0933333337 0.00499999989 0
0.0900000036 0.00499999989 0
0.086666666 0.00499999989 0
0.0833333358 0.00499999989 0
0.0799999982 0.00499999989 0
0.0766666681 0.00499999989 0
0.0733333305 0.00499999989 0
0.0700000003 0.00499999989 0
0.0666666701 0.00499999989 0
0.0633333325 0.00499999989 0
0.0599999987 0.00499999989 0
0.0566666685 0.00499999989 0
0.0533333346 0.00499999989 0
0.0500000007 0.00499999989 0
0.0466666669 0.00499999989 0
0.043333333 0.00499999989 0
0.0399999991 0.00499999989 0
0.0366666652 0.00499999989 0
0.0333333351 0.00499999989 0
0.0299999993 0.00499999989 0
0.0266666673 0.00499999989 0
0.0233333334 0.00499999989 0
0.0199999996 0.00499999989 0
0.0166666675 0.00499999989 0
0.0133333337 0.00499999989 0
0.00999999978 0.00499999989 0
0.00666666683 0.00499999989 0
0.00333333341 0.00499999989 0
0 0.00499999989 0
0.100000001 0.00166666671 0
0.0966666639 0.00166666671 0
0.0933333337 0.00166666671 0
0.0900000036 0.00166666671 0
0.086666666 0.00166666671 0
0.0833333358 0.00166666671 0
0.0799999982 0.00166666671 0
0.0766666681 0.00166666671 0
0.0733333305 0.00166666671 0
0.0700000003 0.00166666671 0
0.0666666701 0.00166666671 0
0.0633333325 0.00166666671 0
0.0599999987 0.00166666671 0
0.0566666685 0.00166666671 0
0.0533333346 0.00166666671 0
0.0500000007 0.00166666671 0
0.0466666669 0.00166666671 0
0.043333333 0.00166666671 0
0.0399999991 0.00166666671 0
0.0366666652 0.00166666671 0
0.0333333351 0.00166666671 0
0.0299999993 0.00166666671 0
0.0266666673 0.00166666671 0
0.0233333334 0.00166666671 0
0.0199999996 0.00166666671 0
0.0166666675 0.00166666671 0
0.0133333337 0.00166666671 0
0.00999999978 0.00166666671 0
0.00666666683 0.00166666671 0
0.00333333341 0.00166666671 0
0 0.00166666671 0
0.100000001 -0.00166666671 0
0.0966666639 -0.00166666671 0
0.0933333337 -0.00166666671 0
0.0900000036 -0.00166666671 0
0.086666666 -0.00166666671 0
0.0833333358 -0.00166666671 0
0.0799999982 -0.00166666671 0
0.0766666681 -0.00166666671 0
0.0733333305 -0.00166666671 0
0.0700000003 -0.00166666671 0
0.0666666701 -0.00166666671 0
0.0633333325 -0.00166666671 0
0.0599999987 -0.00166666671 0
0.0566666685 -0.00166666671 0
0.0533333346 -0.00166666671 0
0.0500000007 -0.00166666671 0
0.0466666669 -0.00166666671 0
0.043333333 -0.00166666671 0
0.0399999991 -0.00166666671 0
0.0366666652 -0.00166666671 0
0.0333333351 -0.00166666671 0
0.0299999993 -0.00166666671 0
0.0266666673 -0.00166666671 0
0.0233333334 -0.00166666671 0
0.0199999996 -0.00166666671 0
0.0166666675 -0.00166666671 0
0.0133333337 -0.00166666671 0
0.00999999978 -0.00166666671 0
0.00666666683 -0.00166666671 0
0.00333333341 -0.00166666671 0
0 -0.00166666671 0
0.100000001 -0.00499999989 0
0.0966666639 -0.00499999989 0
0.0933333337 -0.00499999989 0
0.0900000036 -0.00499999989 0
0.086666666 -0.00499999989 0
0.0833333358 -0.00499999989 0
0.0799999982 -0.00499999989 0
0.0766666681 -0.00499999989 0
0.0733333305 -0.00499999989 0
0.0700000003 -0.00499999989 0
0.0666666701 -0.00499999989 0
0.0633333325 -0.00499999989 0
0.0599999987 -0.00499999989 0
0.0566666685 -0.00499999989 0
0.0533333346 -0.00499999989 0
0.0500000007 -0.00499999989 0
0.0466666669 -0.00499999989 0
0.043333333 -0.00499999989 0
0.0399999991 -0.00499999989 0
0.0366666652 -0.00499999989 0
0.0333333351 -0.00499999989 0
0.0299999993 -0.00499999989 0
0.0266666673 -0.00499999989 0
0.0233333334 -0.00499999989 0
0.0199999996 -0.00499999989 0
0.0166666675 -0.00499999989 0
0.0133333337 -0.00499999989 0
0.00999999978 -0.00499999989 0
0.00666666683 -0.00499999989 0
0.00333333341 -0.00499999989 0
0 -0.00499999989 0
0.100000001 -0.00833333377 0
0.0966666639 -0.00833333377 0
0.0933333337 -0.00833333377 0
0.0900000036 -0.00833333377 0
0.086666666 -0.00833333377 0
0.0833333358 -0.00833333377 0
0.0799999982 -0.00833333377 0
0.0766666681 -0.00833333377 0
0.0733333305 -0.00833333377 0
0.0700000003 -0.00833333377 0
0.0666666701 -0.00833333377 0
0.0633333325 -0.00833333377 0
0.0599999987 -0.00833333377 0
0.0566666685 -0.00833333377 0
0.0533333346 -0.00833333377 0
0.0500000007 -0.00833333377 0
0.0466666669 -0.00833333377 0
0.043333333 -0.00833333377 0
0.0399999991 -0.00833333377 0
0.0366666652 -0.00833333377 0
0.0333333351 -0.00833333377 0
0.0299999993 -0.00833333377 0
0.0266666673 -0.00833333377 0
0.0233333334 -0.00833333377 0
0.0199999996 -0.00833333377 0
0.0166666675 -0.00833333377 0
0.0133333337 -0.00833333377 0
0.00999999978 -0.00833333377 0
0.00666666683 -0.00833333377 0
0.00333333341 -0.00833333377 0
0 -0.00833333377 0
0.100000001 -0.0116666667 0
0.0966666639 -0.0116666667 0
0.0933333337 -0.0116666667 0
0.0900000036 -0.0116666667 0
0.086666666 -0.0116666667 0
0.0833333358 -0.0116666667 0
0.0799999982 -0.0116666667 0
0.0766666681 -0.0116666667 0
0.0733333305 -0.0116666667 0
0.0700000003 -0.0116666667 0
0.0666666701 -0.0116666667 0
0.0633333325 -0.0116666667 0
0.0599999987 -0.0116666667 0
0.0566666685 -0.0116666667 0
0.0533333346 -0.0116666667 0
0.0500000007 -0.0116666667 0
0.0466666669 -0.0116666667 0
0.043333333 -0.0116666667 0
0.0399999991 -0.0116666667 0
0.0366666652 -0.0116666667 0
0.0333333351 -0.0116666667 0
0.0299999993 -0.0116666667 0
0.0266666673 -0.0116666667 0
0.0233333334 -0.0116666667 0
0.0199999996 -0.0116666667 0
0.0166666675 -0.0116666667 0
0.0133333337 -0.0116666667 0
0.00999999978 -0.0116666667 0
0.00666666683 -0.0116666667 0
0.00333333341 -0.0116666667 0
0 -0.0116666667 0
0.100000001 -0.0149999997 0
0.0966666639 -0.0149999997 0
0.0933333337 -0.0149999997 0
0.0900000036 -0.0149999997 0
0.086666666 -0.0149999997 0
0.0833333358 -0.0149999997 0
0.0799999982 -0.0149999997 0
0.0766666681 -0.0149999997 0
0.0733333305 -0.0149999997 0
0.0700000003 -0.0149999997 0
0.0666666701 -0.0149999997 0
0.0633333325 -0.0149999997 0
0.0599999987 -0.0149999997 0
0.0566666685 -0.0149999997 0
0.0533333346 -0.0149999997 0
0.0500000007 -0.0149999997 0
0.0466666669 -0.0149999997 0
0.043333333 -0.0149999997 0
0.0399999991 -0.0149999997 0
0.0366666652 -0.0149999997 0
0.0333333351 -0.0149999997 0
0.0299999993 -0.0149999997 0
0.0266666673 -0.0149999997 0
0.0233333334 -0.0149999997 0
0.0199999996 -0.0149999997 0
0.0166666675 -0.0149999997 0
0.0133333337 -0.0149999997 0
0.00999999978 -0.0149999997 0
0.00666666683 -0.0149999997 0
0.00333333341 -0.0149999997 0
0 -0.0149999997 0
0.100000001 -0.0183333326 0
0.0966666639 -0.0183333326 0
0.0933333337 -0.0183333326 0
0.0900000036 -0.0183333326 0
0.086666666 -0.0183333326 0
0.0833333358 -0.0183333326 0
0.0799999982 -0.0183333326 0
0.0766666681 -0.0183333326 0
0.0733333305 -0.0183333326 0
0.0700000003 -0.0183333326 0
0.0666666701 -0.0183333326 0
0.0633333325 -0.0183333326 0
0.0599999987 -0.0183333326 0
0.0566666685 -0.0183333326 0
0.0533333346 -0.0183333326 0
0.0500000007 -0.0183333326 0
0.0466666669 -0.0183333326 0
0.043333333 -0.0183333326 0
0.0399999991 -0.0183333326 0
0.0366666652 -0.0183333326 0
0.0333333351 -0.0183333326 0
0.0299999993 -0.0183333326 0
0.0266666673 -0.0183333326 0
0.0233333334 -0.0183333326 0
0.0199999996 -0.0183333326 0
0.0166666675 -0.0183333326 0
0.0133333337 -0.0183333326 0
0.00999999978 -0.0183333326 0
0.00666666683 -0.0183333326 0
0.00333333341 -0.0183333326 0
0 -0.0183333326 0
0.100000001 -0.0216666665 0
0.0966666639 -0.0216666665 0
0.0933333337 -0.0216666665 0
0.0900000036 -0.0216666665 0
0.086666666 -0.0216666665 0
0.0833333358 -0.0216666665 0
0.0799999982 -0.0216666665 0
0.0766666681 -0.0216666665 0
0.0733333305 -0.0216666665 0
0.0700000003 -0.0216666665 0
0.0666666701 -0.0216666665 0
0.0633333325 -0.0216666665 0
0.0599999987 -0.0216666665 0
0.0566666685 -0.0216666665 0
0.0533333346 -0.0216666665 0
0.0500000007 -0.0216666665 0
0.0466666669 -0.0216666665 0
0.043333333 -0.0216666665 0
0.0399999991 -0.0216666665 0
0.0366666652 -0.0216666665 0
0.0333333351 -0.0216666665 0
0.0299999993 -0.0216666665 0
0.0266666673 -0.0216666665 0
0.0233333334 -0.0216666665 0
0.0199999996 -0.0216666665 0
0.0166666675 -0.0216666665 0
0.0133333337 -0.0216666665 0
0.00999999978 -0.0216666665 0
0.00666666683 -0.0216666665 0
0.00333333341 -0.0216666665 0
0 -0.0216666665 0
0.100000001 -0.0250000004 0
0.0966666639 -0.0250000004 0
0.0933333337 -0.0250000004 0
0.0900000036 -0.0250000004 0
0.086666666 -0.0250000004 0
0.0833333358 -0.0250000004 0
0.0799999982 -0.0250000004 0
0.0766666681 -0.0250000004 0
0.0733333305 -0.0250000004 0
0.0700000003 -0.0250000004 0
0.0666666701 -0.0250000004 0
0.0633333325 -0.0250000004 0
0.0599999987 -0.0250000004 0
0.0566666685 -0.0250000004 0
0.0533333346 -0.0250000004 0
0.0500000007 -0.0250000004 0
0.0466666669 -0.0250000004 0
0.043333333 -0.0250000004 0
0.0399999991 -0.0250000004 0
0.0366666652 -0.0250000004 0
0.0333333351 -0.0250000004 0
0.0299999993 -0.0250000004 0
0.0266666673 -0.0250000004 0
0.0233333334 -0.0250000004 0
0.0199999996 -0.0250000004 0
0.0166666675 -0.0250000004 0
0.0133333337 -0.0250000004 0
0.00999999978 -0.0250000004 0
0.00666666683 -0.0250000004 0
0.00333333341 -0.0250000004 0
0 -0.0250000004 0
0.100000001 -0.0283333343 0
0.0966666639 -0.0283333343 0
0.0933333337 -0.0283333343 0
0.0900000036 -0.0283333343 0
0.086666666 -0.0283333343 0
0.0833333358 -0.0283333343 0
0.0799999982 -0.0283333343 0
0.0766666681 -0.0283333343 0
0.0733333305 -0.0283333343 0
0.0700000003 -0.0283333343 0
0.0666666701 -0.0283333343 0
0.0633333325 -0.0283333343 0
0.0599999987 -0.0283333343 0
0.0566666685 -0.0283333343 0
0.0533333346 -0.0283333343 0
0.0500000007 -0.0283333343 0
0.0466666669 -0.0283333343 0
0.043333333 -0.0283333343 0
0.0399999991 -0.0283333343 0
0.0366666652 -0.0283333343 0
0.0333333351 -0.0283333343 0
0.0299999993 -0.0283333343 0
0.0266666673 -0.0283333343 0
0.0233333334 -0.0283333343 0
0.0199999996 -0.0283333343 0
0.0166666675 -0.0283333343 0
0.0133333337 -0.0283333343 0
0.00999999978 -0.0283333343 0
0.00666666683 -0.0283333343 0
0.00333333341 -0.0283333343 0
0 -0.0283333343 0
0.100000001 -0.0316666663 0
[...]
POINT_DATA 961
SCALARS Temp float 1
LOOKUP_TABLE default
269.09088605768034
236.1947609269823
213.5771692177525
199.76676998808716
192.16872837056067
188.3837686624631
186.66307935592232
185.9430114797311
185.6631825991706
185.5613540554683
185.52639043093214
185.51498494338745
185.5114301904335
185.51036769611102
185.51006513136
185.5099976189879
185.5100428896305
185.51028310035477
185.51113783205955
185.51400982018316
185.5232694192956
185.55181239925022
185.63547605537343
185.8671093293455
186.46839481966592
187.91999237105335
191.15134276323582
197.72812921561834
209.87819428870318
230.13165069416925
260.9712429619234
239.10022690056542
204.44916545904576
180.98290730675447
166.56927527378065
158.59253907518178
154.59253166268664
152.76206539887625
151.9912316530741
151.6899259087573
151.57970081669217
151.54167352074046
151.529214945274
151.52531728341822
151.52414859759267
151.52381453680584
151.52373990130354
151.5237900075634
151.52405526428487
151.52499644224707
151.528148208003
151.5382733590495
151.56935401611875
151.66003924611624
151.9098334811713
152.55463418861967
154.10186161998297
157.5240330121184
164.4439153659441
177.14284209849887
198.20808273209664
229.47767915068883
218.30602355511417
183.02701564445167
158.96172613448158
144.15754408611184
135.92962122318414
131.7840827377452
129.87757131815553
129.0707672107794
128.7539200462703
128.63749943508012
128.59717134576053
128.58391012204135
128.5797471339478
128.57849479510176
128.57813599157987
128.57805568380417
128.57810970977349
128.57839507818335
128.57940495311257
128.58277697531668
128.59357457641508
128.6266052155907
128.72261539527668
128.9860025561781
129.66294830048832
131.27995198071886
134.83993825947704
142.00523891218103
155.09790244969852
176.68730701574054
208.81276421519354
205.40639355487139
169.83336078250545
145.5007664405056
130.4808996956476
122.10868915921503
117.87588234659947
115.92209099644383
115.09217137851108
114.76503532250229
114.6444017982143
114.60247123273982
114.58863911191108
114.58428374427221
114.58296957754706
114.58259225695697
114.58250770535629
114.58256476668335
114.58286546739416
114.58392708059154
114.5874626536529
114.59875232174024
114.63318837434898
114.73297523096828
115.00584901701008
115.70488850734442
117.36923688115705
121.02194019699422
128.35270609467332
141.71246371757752
163.72207033795823
196.46313452234128
198.13340846820958
162.4678468671147
138.03508007966184
122.92402618046253
114.48201649270074
110.20384541132141
108.22402754437508
107.38076883332533
107.04744902017822
106.9241916884529
106.88123130787456
106.86702210641053
106.86253649283147
106.86117948976867
106.86078912187867
106.86070156082945
106.86076085969879
106.86107264220013
106.8621710784243
106.86582114996729
106.87744923784308
106.91283449697299
107.01512475797878
107.29417394965604
108.00736608412848
109.70168531710532
113.4128716840451
120.84876531384666
134.38581439568486
156.67432806691664
189.82219927266672
194.3923407322796
158.71928820508109
134.26413398693435
119.12407222983411
110.65522517561052
106.35714402935763
104.36486063360505
103.51476876030534
103.17810316283497
103.05335885659035
103.00979104893614
102.99535157651977
102.99078394040099
102.9893992067233
102.98900020449975
102.98891063473904
102.9889714990265
102.98929086222448
102.99041404721542
102.99413961198688
103.00598635232257
103.04197234358863
103.1458146148825
103.42861952929265
104.15028201826833
105.86235393766611
109.60808997394633
117.10668861223397
130.74964520409773
153.20376500222724
186.5893584070033
192.6253281388521
156.9686062307547
132.5174086082365
117.37314683007156
108.89690144217101
104.59181518718417
102.59446758637309
101.74131598735629
101.40303719343953
101.27753168328185
101.233636888838
101.21906800460988
101.21445250668391
101.21305105305096
101.21264670038508
101.21255587368996
101.21261777767826
101.2129420461247
101.2140809305589
101.21785336646167
101.22983285497504
101.26617540785864
101.37091894061746
101.65586200977371
102.38226914554437
104.10417190839297
107.86892379125105
115.40177260237398
129.10190412987015
151.64394638184461
185.15361369750448
191.85342003939166
156.21255206888955
131.76958975050425
116.62792591720961
108.15110824022223
103.84431471545888
101.8453135911452
100.9909943332373
100.65203238123392
100.52617816746603
100.4821237975379
100.46748832396186
100.46284705490059
100.4614362425689
100.46102879536845
100.4609372348128
100.46099979494312
100.4613270654322
100.46247534990758
100.46627519907712
100.47833048129695
100.51487177665041
100.62010630573613
100.90619027091819
101.63508386446169
103.36205955058792
107.13647070440807
114.68640884486908
128.41449127677842
150.99863073014134
184.56659435478915
191.53921668300939
155.90826475075818
131.4712872606389
116.33254229587062
107.85667675701099
103.54984714815588
101.55048233794113
100.69580434499873
100.3565946907487
100.23059951841874
100.18647516969837
100.17180851989748
100.16715450656474
100.16573884883658
100.16532973705185
100.16523777901182
100.16530073306652
100.16562974180414
100.16678334114691
100.17059830586378
100.18269433101992
100.21933979214613
100.32482553613876
100.61148012242968
101.34159083488713
103.07099632597499
106.84992887339898
114.40767401570652
128.14821830313082
150.75070831993048
184.3436026179509
191.41917928537686
155.79327806208522
131.35956396166884
116.22264731402525
107.74762274801293
103.44106414751349
101.4417080777558
100.58695744499977
100.24767535260274
100.12163117683788
100.07747962825475
100.06279981034724
100.05814004303639
100.05672207491105
100.05631213374973
100.05621997747538
100.05628315679309
100.05661311834093
100.05776955753892
100.0615923877734
100.07370905568688
100.11040590562368
100.21601240943164
100.50293436333013
101.23360077275183
102.96408631468658
106.74497404249782
114.30600428019416
128.0516598142398
150.6615087536174
184.26421758467862
191.37584728934394
155.75219742592333
131.31999814755895
116.18399427327444
107.70944964538847
103.40310045625517
101.40381016039501
100.54906376031592
100.20976792410121
100.08370997274396
100.03954929285258
100.02486452478053
100.02020240506596
100.01878342807602
100.01837310605315
100.01828085972384
100.01834416186944
100.01867461823824
100.01983249269851
100.02365918938315
100.03578572436561
100.07250645233341
100.1781675039376
100.4652068051592
101.19611003376168
102.92704230236848
106.70871520337779
114.27102830447016
128.0186301266176
150.63122154251877
184.237524944247
191.36097572114798
155.73823540332725
131.30666508098773
116.17105837899982
107.69673914168122
103.3905021355709
101.39125854749976
100.5365263838059
100.19723169273058
100.07117125436488
100.02700808871217
100.01232170716114
100.00765872821616
100.00623935108678
100.00582886894347
100.00573658599488
100.00579995203344
100.00613065204912
100.00728921316428
100.01111770673342
100.02324869405824
100.05997987653276
100.16566409107791
100.45275169010351
101.18374936457433
102.91485433788905
106.69682191042051
114.25960353042716
128.00789936570894
150.62144929631873
184.2289894069666
191.3560982246355
155.733697445416
131.30236682572513
116.16691659677888
107.69269080340173
103.38650409930477
101.38728436149582
100.53256170823664
100.19326982207633
100.06720962211051
100.02304601990724
100.0083592087647
100.00369595586056
100.00227643619733
100.00186589291278
100.00177359702177
100.00183699472692
100.00216780852173
100.00332668075067
100.00715596427784
100.0192888494897
100.05602434925378
100.16171782622466
100.44882412220059
101.17985720590546
102.91102496582813
106.6930966382876
114.25603956145606
128.004569057665
150.61843578424458
184.22637850496687
191.3545647338894
155.73228261431402
131.30103702724355
116.16564371844075
107.69145320310953
103.38528653531044
101.3860770795803
100.53135908425969
100.19206897608137
100.06600927585228
100.02184570943298
100.00715882037782
100.00249549391486
100.00107592895202
100.00066536443602
100.00057306468047
100.0006364771712
100.00096734110659
100.00212634630219
100.00595595723844
100.0180896046185
100.05482678298861
100.16052374608768
100.44763685604603
101.17868244858231
102.90987174752664
106.69197818584621
114.25497371097146
128.0035778616554
150.61754409715817
184.22561165693173
191.3541109214754
155.73186696666065
131.30064898744584
116.16527448522396
107.69109591587937
103.38493626844114
101.38573058775079
100.53101441897714
100.19172508291598
100.06566564901519
100.02150214126692
100.00681524398763
100.00215189775139
100.00073231792727
100.00032174572654
100.00022944459319
100.00029286313891
100.00062374713666
100.00178280415673
100.00561253903936
100.01774646640494
100.05448424293307
100.16018241141003
100.44729780928296
101.17834748628817
102.90954363837123
106.69166088149593
114.25467241845864
128.0032988902909
150.61729441719459
184.22539832098028
191.3540212316688
155.7317849578167
131.30057260917903
116.165201824708
107.69102552619995
103.38486713282693
101.38566205670053
100.53094612131257
100.19165683522485
100.06559737897454
100.02143383262543
100.00674690279779
100.00208353507395
100.00066394308735
100.00025336495015
100.00016106176973
100.00022448131718
100.00055537044986
100.0017144407807
100.0055442064945
100.0176782012201
100.05441611739523
100.16011455997918
100.44723046635046
101.17828103328664
102.90947865305456
106.69159817568286
114.25461304623704
128.0032441090041
150.61724561959494
184.225356621171
191.35414654691104
155.7318993033235
131.30067823841995
116.16530101054184
107.69112011070499
103.38495855426835
101.3857513918364
100.53103414201273
100.19174406791551
100.06568416348262
100.02152037571484
100.0068333228183
100.00216989575947
100.00075027668404
100.00033968671356
100.00024737825962
100.00031079439603
100.00064167825919
100.0018007358241
100.00563046974354
100.01776438989289
100.0545021429098
100.16020025268924
100.4473155249475
101.1783649618412
102.90956069625987
106.69167727291148
114.254687832164
128.00331298652097
150.61730688496053
184.2254090541297
191.3546976792087
155.73240338967037
131.30114649095998
116.1657429424209
107.69154358098947
103.38536968986658
101.38615469765907
100.5314327364193
100.19213997947658
100.06607863156454
100.02191411049402
100.00722670584152
100.00256311946949
100.00114343208567
100.00073281386359
100.00064049284134
100.00070389917539
100.00103476455772
100.0021937750839
100.00602339021323
100.01815702800346
100.05489415345495
100.16059096152539
100.44770371251182
101.1787485868866
102.90993659932055
106.69204093579816
114.25503329469333
128.00363301499826
150.6175934657894
184.2256538542621
191.3565376726984
155.73409949388315
131.3027327724563
116.167249127363
107.69299411283347
103.38678350649988
101.3875455808642
100.53281008991972
100.19350980756276
100.0674445192631
100.023278056788
100.00858975157456
100.00392577177819
100.00250592203768
100.0020952392921
100.002002890765
100.0020662759045
100.00239709945357
100.0035559982
100.00738531818541
100.01951822365372
100.05625365245801
100.16194680034837
100.44905219814865
101.18008331521189
102.91124733917553
106.69331264624297
114.25624566371474
128.0047609133728
150.61860853815733
184.22652726866895
191.36236538682772
155.7395164063552
131.30783676823734
116.17212600377827
107.69771448039309
103.39140184333678
101.39210117830221
100.53732939269173
100.19800939120866
100.07193405416804
100.02776278839364
100.01307232652057
100.00840743633793
100.00698722407178
100.0065764025115
100.0064839976845
100.00654734153588
100.00687808137987
100.00803674422312
100.0118654076946
100.02399659956376
100.06072786028953
100.1664115954304
100.45349726445095
101.18449002011131
102.91558481439245
106.69753404926135
114.26028600114476
128.00853796054872
150.6220278654948
184.22949136548803
191.380061638623
155.75611401154157
131.32359817370101
116.18728265433245
107.71245744061157
103.40587815289193
101.40641606572238
100.5515527507398
100.2121842142671
100.08608482980833
100.04190242151897
100.02720711874134
100.02254025331973
100.02111928125598
100.0207081787686
100.02061566565165
100.0206789354571
100.02100952290766
100.02216773138133
100.02599505598171
100.03812255522108
100.07484434382282
100.1805055885517
100.4675418677862
101.19843441423578
102.92934135088147
106.7109649485939
114.27319423935018
128.0206679181835
150.6330800490634
184.23915100589747
191.43138719294254
155.8047220270943
131.37013277088494
116.23231984131283
107.75647567423532
103.44924601643555
101.44939599507765
100.59431704521393
100.25483694463833
100.12868384035322
100.08447730634023
100.06977185560096
100.06510098238199
100.06367851827956
100.0632668814222
100.06317417241156
100.063237320185
100.06356765690299
100.06472507153099
100.06854990690886
100.08067012001118
100.11737211287885
100.2229837294583
100.50990533738647
101.24055412425406
102.97098458711076
106.75175139615787
114.31256161814666
128.0578661536337
150.66721005030715
184.26925246530428
191.57281360395478
155.94004281153943
131.5007642696083
116.35955190604484
107.8813962928705
103.57270071847492
101.57198730970974
100.7164374105564
100.37671947775068
100.25045502657896
100.20619997273975
100.19147472281318
100.18679626051933
100.18537105378905
100.18495846152636
100.18486541900081
100.18492838350028
100.18525835498336
100.18641453218181
100.19023520351595
100.20234240175446
100.23900674801952
100.34451824412999
100.63119532771714
101.3612971344118
103.09060825530263
106.86927955516144
114.42649721082219
128.1661499417477
150.76731155330148
184.358411672931
191.94068823299827
156.29586598131223
131.847166525334
116.69902828317565
108.21612559373492
103.90441932126612
101.90194778100363
101.04545450288207
100.70527067867441
100.57879367894914
100.53444847515398
100.51968739460322
100.51499554472271
100.51356562160645
100.51315142325237
100.5130578458407
100.513120563099
100.51345008303349
100.51460458995548
100.5184191184031
100.53050558445807
100.56710558218947
100.67243446047172
100.95863756429316
101.68761802747433
103.41451575469335
107.18846499407988
114.73727656122041
128.4632859332975
151.04419374186034
184.60767859575668
192.83788996402467
157.17342831595099
132.70868017892104
117.548282913667
109.05675218826418
104.73950597038764
102.73380331178645
101.87559630746267
101.53458125944354
101.40773279397034
101.36323334306695
101.34841218529127
101.34369832588459
101.3422608043883
101.34184406271557
101.34174967560456
101.34181210180573
101.34214120216456
101.34329389368321
101.34710074979037
101.35915851971134
101.39566148596973
101.50069375408333
101.78607298610065
102.51297899503236
104.2351549364065
107.99940338441458
115.53022153750601
129.22602931133585
151.76089159778505
185.26028663332715
194.87441322838086
159.18796927704173
134.7024603443208
119.52437728234021
111.019492282251
106.69335450543407
104.68240090805939
103.82141471149967
103.47906244454411
103.35162287602904
103.3068809089407
103.29196641836973
103.28721878831497
103.28576977040395
103.28534922573755
103.28525367896003
103.28531582642405
103.28564479674334
103.28679628456618
103.29059585157762
103.30262089349888
103.33899868470853
103.4436108073522
103.72772666227964
104.45121921046525
106.16511520265765
109.91139199208415
117.40732148833149
131.0424269401234
153.4821485399708
186.84634427964602
199.14459846151797
163.45874351111965
138.96127230708066
123.76585662425221
115.24479190402359
110.9068051434159
108.88856233538931
108.02363051721304
107.67935731729426
107.5510641279045
107.50597160768834
107.49092243849117
107.48612627922306
107.48466085460105
107.48423492114506
107.48413779798946
107.48419978038072
107.48452934147001
107.48568161720743
107.48947830891322
107.50147727923033
107.5377262363445
107.641838301
107.92428513467758
108.64287087150032
110.34396334599002
114.06057817485336
121.49583467560583
135.02108248813528
157.28379033739697
190.39143743352986
207.3569446637862
171.75678914737412
147.29129941910773
132.096477092001
123.5642513788318
119.21496545696033
117.1886278081075
116.31893043486745
115.97221708710948
115.84280600005044
115.79724604928025
115.78201549687391
115.77715367906323
115.77566604059398
115.77523283996156
115.7751336752919
115.77519575182959
115.77552722367771
115.77668429211447
115.78048885886102
115.79248707168458
115.82865413682404
115.93230906700485
116.2129345836438
116.9255084405356
118.60945102665046
122.28325034989432
129.62463590120862
142.97193887596404
164.93912339384
197.61226533556191
221.76043625956072
186.4366487783474
162.10976604527636
146.9642144948941
138.44491357478017
134.09297043262615
132.06071967320975
131.1863708247055
130.8369437700182
130.7062005793259
130.66006147912273
130.64460116759435
130.63965510576182
130.6381387355787
130.6376961602839
130.63759446391668
130.63765706770687
130.63799247312542
130.6391607756349
130.64299197240842
130.6550397043453
130.69124533964902
130.79468645517235
131.07383603197198
131.78038545915211
133.44485060955466
137.06536148736177
144.28097927863442
157.36798319270412
178.89217853113433
210.90382485134583
244.70314172819383
210.0032864726471
185.95309882713633
170.97107190336695
162.51721670966947
158.18322544111683
156.15151827066455
155.2739823865259
154.92194046012116
154.78973827607155
154.74292418547554
154.727187143688
154.72213763713756
154.72058552380426
154.7201313217227
154.72002657622016
154.7200903206846
154.72043238031574
154.72162075693976
154.72550553162748
154.73767924725848
154.7741247402165
154.87782876918376
155.15647730469303
155.85855272561736
157.50472455157282
161.06858641597702
168.13832129060225
180.90575821774914
201.77820287066672
232.90086075087538
278.30995195022376
244.0484488280146
220.66058061762047
206.01531225985707
197.7084310493578
193.4241024715101
191.40336003404562
190.52535760652313
190.17115280568515
190.0374523629415
189.98988562597847
189.97382694659666
189.96865477878924
189.96705993200874
189.9665914962847
189.96648322810532
189.96654887947585
189.9669008448936
189.96812005028707
189.97209135170908
189.9844884196908
190.02143810115032
190.12607023796394
190.4057178666046
191.10624376830128
192.73866731326058
196.25010806253275
203.1712850172319
215.58969508304355
235.79788527680765
265.13947599485584
