# vtk DataFile Version 2.0
Unstructured Grid Example
ASCII
DATASET UNSTRUCTURED_GRID

POINTS 961 float
0.100000001 0.00499999989 0
0.0966666639 0.00499999989 0
0.0933333337 0.00499999989 0
0.0900000036 0.00499999989 0
0.086666666 0.00499999989 0
0.0833333358 0.00499999989 0
0.0799999982 0.00499999989 0
0.0766666681 0.00499999989 0
0.0733333305 0.00499999989 0
0.0700000003 0.00499999989 0
0.0666666701 0.00499999989 0
0.0633333325 0.00499999989 0
0.0599999987 0.00499999989 0
0.0566666685 0.00499999989 0
0.0533333346 0.00499999989 0
0.0500000007 0.00499999989 0
0.0466666669 0.00499999989 0
0.043333333 0.00499999989 0
0.0399999991 0.00499999989 0
0.0366666652 0.00499999989 0
0.0333333351 0.00499999989 0
0.0299999993 0.00499999989 0
0.0266666673 0.00499999989 0
0.0233333334 0.00499999989 0
0.0199999996 0.00499999989 0
0.0166666675 0.00499999989 0
0.0133333337 0.00499999989 0
0.00999999978 0.00499999989 0
0.00666666683 0.00499999989 0
0.00333333341 0.00499999989 0
0 0.00499999989 0
0.100000001 0.00166666671 0
0.0966666639 0.00166666671 0
0.0933333337 0.00166666671 0
0.0900000036 0.00166666671 0
0.086666666 0.00166666671 0
0.0833333358 0.00166666671 0
0.0799999982 0.00166666671 0
0.0766666681 0.00166666671 0
0.0733333305 0.00166666671 0
0.0700000003 0.00166666671 0
0.0666666701 0.00166666671 0
0.0633333325 0.00166666671 0
0.0599999987 0.00166666671 0
0.0566666685 0.00166666671 0
0.0533333346 0.00166666671 0
0.0500000007 0.00166666671 0
0.0466666669 0.00166666671 0
0.043333333 0.00166666671 0
0.0399999991 0.00166666671 0
0.0366666652 0.00166666671 0
0.0333333351 0.00166666671 0
0.0299999993 0.00166666671 0
0.0266666673 0.00166666671 0
0.0233333334 0.00166666671 0
0.0199999996 0.00166666671 0
0.0166666675 0.00166666671 0
0.0133333337 0.00166666671 0
0.00999999978 0.00166666671 0
0.00666666683 0.00166666671 0
0.00333333341 0.00166666671 0
0 0.00166666671 0
0.100000001 -0.00166666671 0
0.0966666639 -0.00166666671 0
0.0933333337 -0.00166666671 0
0.0900000036 -0.00166666671 0
0.086666666 -0.00166666671 0
0.0833333358 -0.00166666671 0
0.0799999982 -0.00166666671 0
0.0766666681 -0.00166666671 0
0.0733333305 -0.00166666671 0
0.0700000003 -0.00166666671 0
0.0666666701 -0.00166666671 0
0.0633333325 -0.00166666671 0
0.0599999987 -0.00166666671 0
0.0566666685 -0.00166666671 0
0.0533333346 -0.00166666671 0
0.0500000007 -0.00166666671 0
0.0466666669 -0.00166666671 0
0.043333333 -0.00166666671 0
0.0399999991 -0.00166666671 0
0.0366666652 -0.00166666671 0
0.0333333351 -0.00166666671 0
0.0299999993 -0.00166666671 0
0.0266666673 -0.00166666671 0
0.0233333334 -0.00166666671 0
0.0199999996 -0.00166666671 0
0.0166666675 -0.00166666671 0
0.0133333337 -0.00166666671 0
0.00999999978 -0.00166666671 0
0.00666666683 -0.00166666671 0
0.00333333341 -0.00166666671 0
0 -0.00166666671 0
0.100000001 -0.00499999989 0
0.0966666639 -0.00499999989 0
0.0933333337 -0.00499999989 0
0.0900000036 -0.00499999989 0
0.086666666 -0.00499999989 0
0.0833333358 -0.00499999989 0
0.0799999982 -0.00499999989 0
0.0766666681 -0.00499999989 0
0.0733333305 -0.00499999989 0
0.0700000003 -0.00499999989 0
0.0666666701 -0.00499999989 0
0.0633333325 -0.00499999989 0
0.0599999987 -0.00499999989 0
0.0566666685 -0.00499999989 0
0.0533333346 -0.00499999989 0
0.0500000007 -0.00499999989 0
0.0466666669 -0.00499999989 0
0.043333333 -0.00499999989 0
0.0399999991 -0.00499999989 0
0.0366666652 -0.00499999989 0
0.0333333351 -0.00499999989 0
0.0299999993 -0.00499999989 0
0.0266666673 -0.00499999989 0
0.0233333334 -0.00499999989 0
0.0199999996 -0.00499999989 0
0.0166666675 -0.00499999989 0
0.0133333337 -0.00499999989 0
0.00999999978 -0.00499999989 0
0.00666666683 -0.00499999989 0
0.00333333341 -0.00499999989 0
0 -0.00499999989 0
0.100000001 -0.00833333377 0
0.0966666639 -0.00833333377 0
0.0933333337 -0.00833333377 0
0.0900000036 -0.00833333377 0
0.086666666 -0.00833333377 0
0.0833333358 -0.00833333377 0
0.0799999982 -0.00833333377 0
0.0766666681 -0.00833333377 0
0.0733333305 -0.00833333377 0
0.0700000003 -0.00833333377 0
0.0666666701 -0.00833333377 0
0.0633333325 -0.00833333377 0
0.0599999987 -0.00833333377 0
0.0566666685 -0.00833333377 0
0.0533333346 -0.00833333377 0
0.0500000007 -0.00833333377 0
0.0466666669 -0.00833333377 0
0.043333333 -0.00833333377 0
0.0399999991 -0.00833333377 0
0.0366666652 -0.00833333377 0
0.0333333351 -0.00833333377 0
0.0299999993 -0.00833333377 0
0.0266666673 -0.00833333377 0
0.0233333334 -0.00833333377 0
0.0199999996 -0.00833333377 0
0.0166666675 -0.00833333377 0
0.0133333337 -0.00833333377 0
0.00999999978 -0.00833333377 0
0.00666666683 -0.00833333377 0
0.00333333341 -0.00833333377 0
0 -0.00833333377 0
0.100000001 -0.0116666667 0
0.0966666639 -0.0116666667 0
0.0933333337 -0.0116666667 0
0.0900000036 -0.0116666667 0
0.086666666 -0.0116666667 0
0.0833333358 -0.0116666667 0
0.0799999982 -0.0116666667 0
0.0766666681 -0.0116666667 0
0.0733333305 -0.0116666667 0
0.0700000003 -0.0116666667 0
0.0666666701 -0.0116666667 0
0.0633333325 -0.0116666667 0
0.0599999987 -0.0116666667 0
0.0566666685 -0.0116666667 0
0.0533333346 -0.0116666667 0
0.0500000007 -0.0116666667 0
0.0466666669 -0.0116666667 0
0.043333333 -0.0116666667 0
0.0399999991 -0.0116666667 0
0.0366666652 -0.0116666667 0
0.0333333351 -0.0116666667 0
0.0299999993 -0.0116666667 0
0.0266666673 -0.0116666667 0
0.0233333334 -0.0116666667 0
0.0199999996 -0.0116666667 0
0.0166666675 -0.0116666667 0
0.0133333337 -0.0116666667 0
0.00999999978 -0.0116666667 0
0.00666666683 -0.0116666667 0
0.00333333341 -0.0116666667 0
0 -0.0116666667 0
0.100000001 -0.0149999997 0
0.0966666639 -0.0149999997 0
0.0933333337 -0.0149999997 0
0.0900000036 -0.0149999997 0
0.086666666 -0.0149999997 0
0.0833333358 -0.0149999997 0
0.0799999982 -0.0149999997 0
0.0766666681 -0.0149999997 0
0.0733333305 -0.0149999997 0
0.0700000003 -0.0149999997 0
0.0666666701 -0.0149999997 0
0.0633333325 -0.0149999997 0
0.0599999987 -0.0149999997 0
0.0566666685 -0.0149999997 0
0.0533333346 -0.0149999997 0
0.0500000007 -0.0149999997 0
0.0466666669 -0.0149999997 0
0.043333333 -0.0149999997 0
0.0399999991 -0.0149999997 0
0.0366666652 -0.0149999997 0
0.0333333351 -0.0149999997 0
0.0299999993 -0.0149999997 0
0.0266666673 -0.0149999997 0
0.0233333334 -0.0149999997 0
0.0199999996 -0.0149999997 0
0.0166666675 -0.0149999997 0
0.0133333337 -0.0149999997 0
0.00999999978 -0.0149999997 0
0.00666666683 -0.0149999997 0
0.00333333341 -0.0149999997 0
0 -0.0149999997 0
0.100000001 -0.0183333326 0
0.0966666639 -0.0183333326 0
0.0933333337 -0.0183333326 0
0.0900000036 -0.0183333326 0
0.086666666 -0.0183333326 0
0.0833333358 -0.0183333326 0
0.0799999982 -0.0183333326 0
0.0766666681 -0.0183333326 0
0.0733333305 -0.0183333326 0
0.0700000003 -0.0183333326 0
0.0666666701 -0.0183333326 0
0.0633333325 -0.0183333326 0
0.0599999987 -0.0183333326 0
0.0566666685 -0.0183333326 0
0.0533333346 -0.0183333326 0
0.0500000007 -0.0183333326 0
0.0466666669 -0.0183333326 0
0.043333333 -0.0183333326 0
0.0399999991 -0.0183333326 0
0.0366666652 -0.0183333326 0
0.0333333351 -0.0183333326 0
0.0299999993 -0.0183333326 0
0.0266666673 -0.0183333326 0
0.0233333334 -0.0183333326 0
0.0199999996 -0.0183333326 0
0.0166666675 -0.0183333326 0
0.0133333337 -0.0183333326 0
0.00999999978 -0.0183333326 0
0.00666666683 -0.0183333326 0
0.00333333341 -0.0183333326 0
0 -0.0183333326 0
0.100000001 -0.0216666665 0
0.0966666639 -0.0216666665 0
0.0933333337 -0.0216666665 0
0.0900000036 -0.0216666665 0
0.086666666 -0.0216666665 0
0.0833333358 -0.0216666665 0
0.0799999982 -0.0216666665 0
0.0766666681 -0.0216666665 0
0.0733333305 -0.0216666665 0
0.0700000003 -0.0216666665 0
0.0666666701 -0.0216666665 0
0.0633333325 -0.0216666665 0
0.0599999987 -0.0216666665 0
0.0566666685 -0.0216666665 0
0.0533333346 -0.0216666665 0
0.0500000007 -0.0216666665 0
0.0466666669 -0.0216666665 0
0.043333333 -0.0216666665 0
0.0399999991 -0.0216666665 0
0.0366666652 -0.0216666665 0
0.0333333351 -0.0216666665 0
0.0299999993 -0.0216666665 0
0.0266666673 -0.0216666665 0
0.0233333334 -0.0216666665 0
0.0199999996 -0.0216666665 0
0.0166666675 -0.0216666665 0
0.0133333337 -0.0216666665 0
0.00999999978 -0.0216666665 0
0.00666666683 -0.0216666665 0
0.00333333341 -0.0216666665 0
0 -0.0216666665 0
0.100000001 -0.0250000004 0
0.0966666639 -0.0250000004 0
0.0933333337 -0.0250000004 0
0.0900000036 -0.0250000004 0
0.086666666 -0.0250000004 0
0.0833333358 -0.0250000004 0
0.0799999982 -0.0250000004 0
0.0766666681 -0.0250000004 0
0.0733333305 -0.0250000004 0
0.0700000003 -0.0250000004 0
0.0666666701 -0.0250000004 0
0.0633333325 -0.0250000004 0
0.0599999987 -0.0250000004 0
0.0566666685 -0.0250000004 0
0.0533333346 -0.0250000004 0
0.0500000007 -0.0250000004 0
0.0466666669 -0.0250000004 0
0.043333333 -0.0250000004 0
0.0399999991 -0.0250000004 0
0.0366666652 -0.0250000004 0
0.0333333351 -0.0250000004 0
0.0299999993 -0.0250000004 0
0.0266666673 -0.0250000004 0
0.0233333334 -0.0250000004 0
0.0199999996 -0.0250000004 0
0.0166666675 -0.0250000004 0
0.0133333337 -0.0250000004 0
0.00999999978 -0.0250000004 0
0.00666666683 -0.0250000004 0
0.00333333341 -0.0250000004 0
0 -0.0250000004 0
0.100000001 -0.0283333343 0
0.0966666639 -0.0283333343 0
0.0933333337 -0.0283333343 0
0.0900000036 -0.0283333343 0
0.086666666 -0.0283333343 0
0.0833333358 -0.0283333343 0
0.0799999982 -0.0283333343 0
0.0766666681 -0.0283333343 0
0.0733333305 -0.0283333343 0
0.0700000003 -0.0283333343 0
0.0666666701 -0.0283333343 0
0.0633333325 -0.0283333343 0
0.0599999987 -0.0283333343 0
0.0566666685 -0.0283333343 0
0.0533333346 -0.0283333343 0
0.0500000007 -0.0283333343 0
0.0466666669 -0.0283333343 0
0.043333333 -0.0283333343 0
0.0399999991 -0.0283333343 0
0.0366666652 -0.0283333343 0
0.0333333351 -0.0283333343 0
0.0299999993 -0.0283333343 0
0.0266666673 -0.0283333343 0
0.0233333334 -0.0283333343 0
0.0199999996 -0.0283333343 0
0.0166666675 -0.0283333343 0
0.0133333337 -0.0283333343 0
0.00999999978 -0.0283333343 0
0.00666666683 -0.0283333343 0
0.00333333341 -0.0283333343 0
0 -0.0283333343 0
0.100000001 -0.0316666663 0
[...]
POINT_DATA 961
SCALARS Temp float 1
LOOKUP_TABLE default
268.2407267316985
236.39059301003434
214.7863236689326
201.55531124904417
194.23169880940344
190.55104633220512
188.85995103631558
188.14394642342356
187.86226499571225
187.75847571499497
187.72239298774474
187.71047877979757
187.70672094052665
187.7055843869877
187.70525875429968
187.7051905400659
187.70525875417454
187.70558438651204
187.7067209412696
187.7104787824863
187.72239294758788
187.75847569645296
187.86226503871768
188.143946017764
188.8599511972442
190.5510424299394
194.23169584805746
201.55529407699385
214.78630752085203
236.39060144792097
268.2406890255237
236.39067942021404
203.45078915803327
181.10538967398614
167.41889148777835
159.84208107858203
156.03357204444404
154.28343821480317
153.54231061071448
153.2506967208553
153.14323031618932
153.10586347707806
153.0935234778164
153.0896308118612
153.0884533315268
153.08811593491498
153.08804525083264
153.0881159347838
153.08845333102767
153.08963081260686
153.0935234805138
153.1058634351784
153.1432302959231
153.25069676186328
153.5423101796596
154.28343834765397
156.0335679076212
159.84207773924777
167.4188728909104
181.10537100541114
203.45078000047005
236.3906050471745
214.78640281242718
181.10539148791813
158.25227646954826
144.2506520414928
136.49658249321757
132.59738071731968
130.80478987326535
130.04534469120986
129.74639110567114
129.63617247824845
129.59783288737384
129.5851667015411
129.58116966939443
129.57996020406745
129.57961353564002
129.5795408935901
129.57961353550087
129.57996020353715
129.5811696700938
129.585166704068
129.5978328435229
129.63617245456098
129.74639113825629
130.0453442198657
130.8047899212368
132.59737623028275
136.49657838406267
144.250631198133
158.2522519107406
181.10537079795492
214.78631038247516
201.55539404282067
167.41889887484865
144.2506591544733
130.05082898015283
122.18346845238764
118.22526117374753
116.40452669449121
115.63270934597226
115.32870696868258
115.21656193806427
115.17753027103971
115.16462846903211
115.16055498606731
115.15932178829519
115.15896816216718
115.15889403945721
115.15896816201895
115.15932178772881
115.16055498668557
115.1646284712656
115.17753022520282
115.21656191000389
115.32870698918849
115.63270882836076
116.40452663230938
118.22525631502054
122.18346350885629
130.05080595056899
144.25063042538378
167.41887184349503
201.55529402798606
194.23180175605918
159.84210783760793
136.49660924124487
122.18348838817472
114.25010234082949
110.2567486953491
108.41885911554914
107.63932185204295
107.3320961399612
107.21869395675041
107.17920123044777
107.16613941792303
107.16201308683392
107.16076321496644
107.16040463027765
107.16032944206825
107.16040463012021
107.16076321436387
107.16201308735535
107.16613941981385
107.1792011827981
107.21869392427003
107.33209614798774
107.63932129190471
108.41885895046669
110.2567435309849
114.25009674194473
122.18346391811365
136.4965781591497
159.84207777536477
194.23169817341255
190.55115580127242
156.03360102184894
132.59740913476628
118.22528276103438
110.25675031999374
106.24421836892289
104.39671560733065
103.61273274616543
103.30359997757475
103.18943433391807
103.14965459277454
103.13649083877898
103.1323301083245
103.13106916747869
103.1307072337873
103.1306313174816
103.13070723362144
103.13106916684316
103.1323301087516
103.13649084034452
103.14965454364462
103.1894342976814
103.3035999751465
103.6127321534027
104.39671536559702
106.24421299964715
110.25674431960309
118.22525750631439
132.59737690089275
156.03356958052197
190.5510506263132
188.8600641659624
154.2834708867948
130.8048223402547
116.40455262688944
108.41886520880605
104.39672013988279
102.54425719658305
101.75791022687451
101.44773205118032
101.3331352776885
101.29318878011343
101.27996418693306
101.27578240659753
101.27451453453052
101.27415046091393
101.27407407298061
101.27415046074103
101.27451453386796
101.27578240694521
101.27996418823335
101.29318872990072
101.33313523869279
101.44773204133136
101.75790961272693
102.54425690714503
104.39671465498448
108.41885899973825
116.4045269978763
130.80478959289727
154.2834388612085
188.85995832069875
188.1440526457503
153.54234085191936
130.045376242136
115.6327348701457
107.63932770148561
103.61273709875537
101.7579100594878
100.9703996949367
100.65968995747001
100.54486672370993
100.50482982605159
100.49157124411114
100.48737736645397
100.48610540528372
100.48574003977419
100.4856633626643
100.4857400395958
100.48610540460069
100.48737736674184
100.49157124522037
100.50482977512632
100.54486668293292
100.6596899430512
100.97039906858751
101.75790974449448
103.61273155685637
107.63932139658775
115.63270907955244
130.04534328401243
153.54230859515056
188.14394653615884
187.8623647820776
153.25072544380768
129.7464225556967
115.32873279369262
107.33210243326573
103.30360483252645
101.44773240527522
100.6596904850716
100.34872946601571
100.23379543354008
100.19371278152491
100.18043642407048
100.1762360196562
100.17496178727923
100.17459568557342
100.17451884081298
100.17459568539073
100.17496178658155
100.17623601990238
100.18043642505397
100.19371273017191
100.23379539173415
100.34872944910494
100.65968985254784
101.44773207815476
103.3035992654106
107.33209608843178
115.32870693890003
129.74638951707306
153.25069310128256
187.86225857454156
187.75857589772292
153.14325940501936
129.6362037842159
115.21658759415669
107.21870011054767
103.18943907322954
101.33313552628826
100.54486714962628
100.23379533241007
100.11881068796919
100.07870638260054
100.06542131570176
100.06121760470376
100.05994218487469
100.05957568736723
100.05949875077216
100.05957568718036
100.05994218416407
100.06121760491737
100.06542131659984
100.07870633099616
100.11881064559995
100.2337953142377
100.54486651422522
101.33313519388035
103.1894334958024
107.21869375022646
115.21656171544518
129.63617071657507
153.14322703232148
187.75846965574306
187.72250389997265
153.1058941588497
129.59786447158524
115.17755595876126
107.17920737962764
103.149659325873
101.29318902309357
100.50483024656532
100.19371267469784
100.07870637670385
100.03859246722413
100.02530339612197
100.02109811067461
100.01982210623079
100.0194554079721
100.01937842386222
100.01945540777729
100.01982210549959
100.02109811084394
100.02530339692733
100.03859241541429
100.07870633393786
100.19371265576363
100.50482960967041
101.29318868819392
103.1496537440436
107.17920101308403
115.17753007094605
129.59783139325225
153.10586177523695
187.72239764564594
187.71059028645888
153.09355426830604
129.58519832120578
115.16465416139155
107.16614555124981
103.13649553919079
101.2799643873821
100.49157161728033
100.180436267655
100.06542125924156
100.02530334517321
100.01201254268845
100.00780655151553
100.00653027577182
100.00616348140552
100.00608647406682
100.00616348118824
100.00653027498448
100.00780655157045
100.01201254327638
100.02530329296535
100.06542121579785
100.18043624761337
100.49157097862535
101.27996404990591
103.13648995360704
107.1661391798328
115.1646282672954
129.58516523576043
153.0935218773696
187.7104840243858
187.70682162256836
153.0896599263131
129.58120083844645
115.16058042964814
107.16201893343023
103.13233447843989
101.27578225158074
100.48737737206366
100.17623549012112
100.06121717254682
100.02109768280135
100.00780617405675
100.00359988436736
100.0023234897225
100.00195665185952
100.00187963376536
100.00195665157283
100.00232348875953
100.00359988405748
100.00780617394574
100.02109762933259
100.06121712696444
100.17623546665355
100.48737672821555
101.2757819067022
103.13232888283618
107.16201254930971
115.1605545202584
129.58116773580713
153.0896275172588
187.7067153423711
187.7056830563694
153.0884807555323
129.5799905123304
115.15934613727832
107.16076778649119
103.13107216103616
101.27451295254257
100.48610395921125
100.174959793548
100.05994028190968
100.01982020397085
100.0065284220276
100.00232201257134
100.00104556845601
100.00067871186987
100.00060168899472
100.00067871137352
100.00104556694802
100.00232201109313
100.00652841960684
100.01982014622037
100.05994022887018
100.17495975786676
100.48610329654292
101.27451258039372
103.13106652823775
107.16076135468096
115.15932017035661
129.57995734452734
153.08844827725295
187.705576707289
187.7053570074632
153.08814241017498
129.57963996805185
115.15898770554469
107.16040399069523
103.13070482465903
101.2741433760532
100.48573303450216
100.17458809965784
100.05956817279255
100.01944788291624
100.00615599869504
100.00194954256392
100.00067307835754
100.00030621383081
100.0002291887415
100.00030621272849
100.00067307522745
100.00194953747844
100.00615598887477
100.01944781096664
100.05956809421845
100.17458802093411
100.48573230381915
101.27414290314951
103.13069905191824
107.16039737667403
115.15896151627526
129.5796065461924
153.08810966048193
187.70525038796666
187.70529341945718
153.08805723445286
129.5795493617092
115.15889427037432
107.160308842995
103.13060856603333
101.27404639974026
100.48563560860245
100.17449040391799
100.05947032285583
100.01934994939633
100.00605802229595
100.00185154537668
100.00057507166287
100.0002082030718
100.0001311764721
100.00020820031062
100.0005750639428
100.00185152966766
100.00605798978228
100.01934983219056
100.05947015995203
100.17449017840038
100.48563463925213
101.274045564403
103.13060227921972
107.16030154798601
115.15886723888337
129.57951496813973
153.0880234405065
187.70518575749992
187.7052963292334
153.08806016538833
129.57955214190957
115.15889677607348
107.16031101559415
103.13061040406743
101.27404794310453
100.48563691814302
100.174491544845
100.05947135267749
100.01935091205674
100.00605894758971
100.00185245146398
100.00057596856041
100.00020909574197
100.00013206693566
100.00020908870054
100.00057594856827
100.00185240609396
100.00605884886474
100.01935065712429
100.05947092286665
100.17449083782753
100.48563514061352
101.27404584594302
103.13060228480445
107.16030124572784
115.15886663716186
129.57951412394792
153.08802245059627
187.705184744462
187.70536865392828
153.0881540602231
129.57965076849544
115.15899707336338
107.16041165535937
103.1307108117714
101.27414790739611
100.48573643308644
100.17459070006367
100.05957026073233
100.01944966967689
100.00615762278854
100.0019510855657
100.0006745837494
100.00030770247996
100.00023066894934
100.00030768508297
100.0006745329217
100.00195096215582
100.00615734142018
100.01944901697868
100.05956902602776
100.17458848220738
100.48573202768868
101.27414157725546
103.13069637973432
107.16039317130722
115.15895580444948
129.57959960824118
153.08810202149814
187.70524270161098
187.7057118638445
153.08850894474816
129.58001509703007
115.15936497745082
107.16078009525064
103.13107816496671
101.27451362380806
100.48610060615816
100.17495370273816
100.05993250054155
100.01981147002961
100.00651919593308
100.0023125520794
100.00103600417317
100.00066910357558
100.0005920596531
100.0006690627927
100.00103588092209
100.00231223636563
100.00651844138747
100.01980973452682
100.05992896839369
100.1749469779397
100.48608804200843
101.27449368029127
103.13104280984304
107.16073200254286
115.15928514892185
129.57991776330354
153.08840615065807
187.7055348540014
187.70686881908443
153.0897035915925
129.58122902878569
115.16058698142228
107.1620013557043
103.13229425838264
101.27572349278005
100.48730513300279
100.1761544532841
100.06113094427354
100.02100866776522
100.00771578998815
100.00350888068056
100.00223222523915
100.00186528241784
100.00178821697405
100.00186519253077
100.00223194377459
100.0035081238607
100.00771389220898
100.02100417479598
100.0611212521684
100.17613503956498
100.48726854462683
101.27566183040393
103.13219254120656
107.16185664318782
115.1603784835373
129.58097511854388
153.08942699017769
187.706516384583
187.7105668324429
153.09350087604105
129.58508790154193
115.16446380826527
107.16586900730691
103.1361408310339
101.27954807052437
100.49111236473253
100.17995027560252
100.0649202656412
100.02479471387078
100.01150035543299
100.00729283762668
100.00601595123987
100.00564892336655
100.00557181669491
100.00564873793266
100.00601534972024
100.00729114436761
100.01149589994246
100.02478370494723
100.06489519228303
100.1798974321321
100.49100922034262
101.27936546442804
103.13583898750399
107.16542318998731
115.16384381698559
129.58432379970196
153.0926514581378
187.70963401128927
187.72174274109682
153.10504442855432
129.5968002123257
115.17620723547256
107.17756329227737
103.14775766434738
101.29109290974061
100.5026049612096
100.19141104233259
100.07636421793028
100.03623080690174
100.02293314503274
100.01872435990468
100.01744702256579
100.01707983849042
100.01700265924158
100.01707948126503
100.01744582381983
100.01872083626765
100.02292342643719
100.03620562964606
100.07630371598358
100.19127660005255
100.50233000774777
101.29058155016129
103.1468864690326
107.17622740076293
115.17433339230786
129.59444696792693
153.10238673876748
187.7189693912797
187.75410600610425
153.13839399688118
129.63057243036667
115.20998906077263
107.21113810682509
103.18107273396535
101.32419090787606
100.53555861179797
100.2242838299976
100.10919767515489
100.06904729093975
100.05574300630323
100.05153184851277
100.05025371840189
100.04988627521388
100.04980897922594
100.04988563333396
100.05025149527712
100.05152504614821
100.0557233878704
100.06899399185365
100.10906264996022
100.22396693196131
100.53487516180797
101.32285071338661
103.17868813483976
107.20732700067397
115.20450030477194
129.62351563513468
153.13029765425853
187.74576666222006
187.8424776337957
153.22936983595721
129.72247633874144
115.30166846280237
107.30206624314468
103.27120724515781
101.41372923919006
100.62473689233069
100.31327835587273
100.19811048624435
100.15792760765731
100.14461155032599
100.14039644905736
100.13911707999128
100.13874925363028
100.13867178738559
100.13874817831942
100.13911324754811
100.14038428830236
100.14457500698002
100.15782373905934
100.19783370545076
100.31259238112999
100.62317112335977
101.41047725489962
103.26510956348945
107.29184595722246
115.28640086423653
129.70228135091773
153.20578006591995
187.81817595428208
188.06873097873805
153.46200462085176
129.95678947046684
115.53466122560634
107.53264767615997
103.49959839950459
101.64065659842234
100.85087147251433
100.53904855542129
100.42373289843663
100.38349587244802
100.37016158615111
100.36594077513443
100.36465972105881
100.36429140135186
100.36421371277112
100.3642897217266
100.36465358260368
100.36592066363664
100.37009889651776
100.3833102118482
100.4232145712702
100.53769547343528
100.84760237867644
101.63343870756486
103.485226958859
107.50717775317149
115.49482901790965
129.9022274927571
153.39686933727182
188.0012579221714
188.60786727088816
154.0154201304895
130.5120488977028
116.08468052489252
108.0757660116751
104.03736876721844
102.1753013447884
101.38403180885109
101.0715959941596
100.95605385961855
100.91574043236855
100.9023823113089
100.89815455941428
100.8968715999742
100.8965027561698
100.8964248138462
100.8965003088362
100.89686246516304
100.89812380552031
100.90228337966713
100.91543673806007
100.95517038784448
101.06917882277877
101.37787096855335
102.1608503548619
104.00661410174278
108.01758295169272
115.98829446951932
130.37407126903656
153.84601426190858
188.4308480634927
189.79483589824045
155.23080539440255
131.7250809654026
117.28035323940793
109.25417326627488
105.2045483060037
103.3370411572641
102.5435058234523
102.23023315173118
102.11441070731927
102.07401115943955
102.06062859992088
102.05639442760189
102.05510990591186
102.05474067790865
102.0546624965791
102.05473734833772
102.0550972722395
102.05635094946649
102.06048505659567
102.07355714305056
102.11304339184633
102.22633876832928
102.53310286647839
103.3112476164973
105.14596437876875
109.13443277648587
117.0671844912334
131.40099558221291
154.8178479044995
189.35733181145818
192.19405008925492
157.67949999211376
134.14647509578234
119.65364070747344
111.58964960942673
107.52237605154004
105.64765344053406
104.85152444230312
104.53741232985155
104.4213450560935
104.38088155323396
104.36748438645553
104.36324751146361
104.3619627085243
104.36159350751586
104.36151517370128
104.36158926776544
104.36194646175393
104.36319067999946
104.36729294919266
104.38026164583927
104.41942626372607
104.53176859712782
104.83586102337898
105.60697977018016
107.4245240247713
111.3747211483454
119.23051924109451
133.44914736489926
156.7346102168512
191.17694451391992
196.65409173706797
162.1694562514969
138.5355478572161
123.90735443820579
115.79370824472444
111.70787418620013
109.82721502772463
109.02942480538493
108.71493915289082
108.59882174392509
108.55836697131656
108.54498015250945
108.54074859631449
108.53946603037465
108.53909762970531
108.53901931681432
108.53909254333198
108.53944656917335
108.54067994630576
108.54474548445192
108.55759427085002
108.5963821714382
108.70759403988859
109.00845928324354
109.77085930038311
111.56624420752566
115.46345359486251
123.20262795369177
137.16649236465972
160.16367777821506
194.36916442614705
204.1758069447761
169.83109204571542
145.52585693792267
130.79018050647238
122.64502661494656
118.5544644449022
116.67448678393126
115.87785852322205
115.5640889355907
115.44831078278379
115.4079957966289
115.3946605071066
115.3904465032347
115.38917024416908
115.38880403871131
115.38872563968502
115.38879798915241
115.38914860596466
115.39036986147349
115.39439645109447
115.40711635552076
115.44550301195943
115.55551328216553
115.85295904702991
116.60612220029665
118.3778633018037
122.21784602459736
129.82152280454517
143.4902897867975
165.49675339938509
199.40850396935247
219.3784989122982
179.78225162767063
155.58256611937261
140.86351834015224
132.7607342037047
128.6951908665533
126.82798136061578
126.03710058641833
125.72566491221735
125.61078405028886
125.57079236690353
125.5575530937581
125.55337327495626
125.55211420039295
125.5517476525529
125.55166977160594
125.55174149784582
125.55208849623664
125.55329761108129
125.55728012590045
125.56987879724176
125.60785708237748
125.71670237722718
126.01089645561862
126.7555421739904
128.50634092600401
132.29769721780158
139.79671357894208
153.21401187118
174.8898804896438
202.73817513865527
