# vtk DataFile Version 2.0
Unstructured Grid Example
ASCII
DATASET UNSTRUCTURED_GRID

POINTS 961 float
0.100000001 0.00499999989 0
0.0966666639 0.00499999989 0
0.0933333337 0.00499999989 0
0.0900000036 0.00499999989 0
0.086666666 0.00499999989 0
0.0833333358 0.00499999989 0
0.0799999982 0.00499999989 0
0.0766666681 0.00499999989 0
0.0733333305 0.00499999989 0
0.0700000003 0.00499999989 0
0.0666666701 0.00499999989 0
0.0633333325 0.00499999989 0
0.0599999987 0.00499999989 0
0.0566666685 0.00499999989 0
0.0533333346 0.00499999989 0
0.0500000007 0.00499999989 0
0.0466666669 0.00499999989 0
0.043333333 0.00499999989 0
0.0399999991 0.00499999989 0
0.0366666652 0.00499999989 0
0.0333333351 0.00499999989 0
0.0299999993 0.00499999989 0
0.0266666673 0.00499999989 0
0.0233333334 0.00499999989 0
0.0199999996 0.00499999989 0
0.0166666675 0.00499999989 0
0.0133333337 0.00499999989 0
0.00999999978 0.00499999989 0
0.00666666683 0.00499999989 0
0.00333333341 0.00499999989 0
0 0.00499999989 0
0.100000001 0.00166666671 0
0.0966666639 0.00166666671 0
0.0933333337 0.00166666671 0
0.0900000036 0.00166666671 0
0.086666666 0.00166666671 0
0.0833333358 0.00166666671 0
0.0799999982 0.00166666671 0
0.0766666681 0.00166666671 0
0.0733333305 0.00166666671 0
0.0700000003 0.00166666671 0
0.0666666701 0.00166666671 0
0.0633333325 0.00166666671 0
0.0599999987 0.00166666671 0
0.0566666685 0.00166666671 0
0.0533333346 0.00166666671 0
0.0500000007 0.00166666671 0
0.0466666669 0.00166666671 0
0.043333333 0.00166666671 0
0.0399999991 0.00166666671 0
0.0366666652 0.00166666671 0
0.0333333351 0.00166666671 0
0.0299999993 0.00166666671 0
0.0266666673 0.00166666671 0
0.0233333334 0.00166666671 0
0.0199999996 0.00166666671 0
0.0166666675 0.00166666671 0
0.0133333337 0.00166666671 0
0.00999999978 0.00166666671 0
0.00666666683 0.00166666671 0
0.00333333341 0.00166666671 0
0 0.00166666671 0
0.100000001 -0.00166666671 0
0.0966666639 -0.00166666671 0
0.0933333337 -0.00166666671 0
0.0900000036 -0.00166666671 0
0.086666666 -0.00166666671 0
0.0833333358 -0.00166666671 0
0.0799999982 -0.00166666671 0
0.0766666681 -0.00166666671 0
0.0733333305 -0.00166666671 0
0.0700000003 -0.00166666671 0
0.0666666701 -0.00166666671 0
0.0633333325 -0.00166666671 0
0.0599999987 -0.00166666671 0
0.0566666685 -0.00166666671 0
0.0533333346 -0.00166666671 0
0.0500000007 -0.00166666671 0
0.0466666669 -0.00166666671 0
0.043333333 -0.00166666671 0
0.0399999991 -0.00166666671 0
0.0366666652 -0.00166666671 0
0.0333333351 -0.00166666671 0
0.0299999993 -0.00166666671 0
0.0266666673 -0.00166666671 0
0.0233333334 -0.00166666671 0
0.0199999996 -0.00166666671 0
0.0166666675 -0.00166666671 0
0.0133333337 -0.00166666671 0
0.00999999978 -0.00166666671 0
0.00666666683 -0.00166666671 0
0.00333333341 -0.00166666671 0
0 -0.00166666671 0
0.100000001 -0.00499999989 0
0.0966666639 -0.00499999989 0
0.0933333337 -0.00499999989 0
0.0900000036 -0.00499999989 0
0.086666666 -0.00499999989 0
0.0833333358 -0.00499999989 0
0.0799999982 -0.00499999989 0
0.0766666681 -0.00499999989 0
0.0733333305 -0.00499999989 0
0.0700000003 -0.00499999989 0
0.0666666701 -0.00499999989 0
0.0633333325 -0.00499999989 0
0.0599999987 -0.00499999989 0
0.0566666685 -0.00499999989 0
0.0533333346 -0.00499999989 0
0.0500000007 -0.00499999989 0
0.0466666669 -0.00499999989 0
0.043333333 -0.00499999989 0
0.0399999991 -0.00499999989 0
0.0366666652 -0.00499999989 0
0.0333333351 -0.00499999989 0
0.0299999993 -0.00499999989 0
0.0266666673 -0.00499999989 0
0.0233333334 -0.00499999989 0
0.0199999996 -0.00499999989 0
0.0166666675 -0.00499999989 0
0.0133333337 -0.00499999989 0
0.00999999978 -0.00499999989 0
0.00666666683 -0.00499999989 0
0.00333333341 -0.00499999989 0
0 -0.00499999989 0
0.100000001 -0.00833333377 0
0.0966666639 -0.00833333377 0
0.0933333337 -0.00833333377 0
0.0900000036 -0.00833333377 0
0.086666666 -0.00833333377 0
0.0833333358 -0.00833333377 0
0.0799999982 -0.00833333377 0
0.0766666681 -0.00833333377 0
0.0733333305 -0.00833333377 0
0.0700000003 -0.00833333377 0
0.0666666701 -0.00833333377 0
0.0633333325 -0.00833333377 0
0.0599999987 -0.00833333377 0
0.0566666685 -0.00833333377 0
0.0533333346 -0.00833333377 0
0.0500000007 -0.00833333377 0
0.0466666669 -0.00833333377 0
0.043333333 -0.00833333377 0
0.0399999991 -0.00833333377 0
0.0366666652 -0.00833333377 0
0.0333333351 -0.00833333377 0
0.0299999993 -0.00833333377 0
0.0266666673 -0.00833333377 0
0.0233333334 -0.00833333377 0
0.0199999996 -0.00833333377 0
0.0166666675 -0.00833333377 0
0.0133333337 -0.00833333377 0
0.00999999978 -0.00833333377 0
0.00666666683 -0.00833333377 0
0.00333333341 -0.00833333377 0
0 -0.00833333377 0
0.100000001 -0.0116666667 0
0.0966666639 -0.0116666667 0
0.0933333337 -0.0116666667 0
0.0900000036 -0.0116666667 0
0.086666666 -0.0116666667 0
0.0833333358 -0.0116666667 0
0.0799999982 -0.0116666667 0
0.0766666681 -0.0116666667 0
0.0733333305 -0.0116666667 0
0.0700000003 -0.0116666667 0
0.0666666701 -0.0116666667 0
0.0633333325 -0.0116666667 0
0.0599999987 -0.0116666667 0
0.0566666685 -0.0116666667 0
0.0533333346 -0.0116666667 0
0.0500000007 -0.0116666667 0
0.0466666669 -0.0116666667 0
0.043333333 -0.0116666667 0
0.0399999991 -0.0116666667 0
0.0366666652 -0.0116666667 0
0.0333333351 -0.0116666667 0
0.0299999993 -0.0116666667 0
0.0266666673 -0.0116666667 0
0.0233333334 -0.0116666667 0
0.0199999996 -0.0116666667 0
0.0166666675 -0.0116666667 0
0.0133333337 -0.0116666667 0
0.00999999978 -0.0116666667 0
0.00666666683 -0.0116666667 0
0.00333333341 -0.0116666667 0
0 -0.0116666667 0
0.100000001 -0.0149999997 0
0.0966666639 -0.0149999997 0
0.0933333337 -0.0149999997 0
0.0900000036 -0.0149999997 0
0.086666666 -0.0149999997 0
0.0833333358 -0.0149999997 0
0.0799999982 -0.0149999997 0
0.0766666681 -0.0149999997 0
0.0733333305 -0.0149999997 0
0.0700000003 -0.0149999997 0
0.0666666701 -0.0149999997 0
0.0633333325 -0.0149999997 0
0.0599999987 -0.0149999997 0
0.0566666685 -0.0149999997 0
0.0533333346 -0.0149999997 0
0.0500000007 -0.0149999997 0
0.0466666669 -0.0149999997 0
0.043333333 -0.0149999997 0
0.0399999991 -0.0149999997 0
0.0366666652 -0.0149999997 0
0.0333333351 -0.0149999997 0
0.0299999993 -0.0149999997 0
0.0266666673 -0.0149999997 0
0.0233333334 -0.0149999997 0
0.0199999996 -0.0149999997 0
0.0166666675 -0.0149999997 0
0.0133333337 -0.0149999997 0
0.00999999978 -0.0149999997 0
0.00666666683 -0.0149999997 0
0.00333333341 -0.0149999997 0
0 -0.0149999997 0
0.100000001 -0.0183333326 0
0.0966666639 -0.0183333326 0
0.0933333337 -0.0183333326 0
0.0900000036 -0.0183333326 0
0.086666666 -0.0183333326 0
0.0833333358 -0.0183333326 0
0.0799999982 -0.0183333326 0
0.0766666681 -0.0183333326 0
0.0733333305 -0.0183333326 0
0.0700000003 -0.0183333326 0
0.0666666701 -0.0183333326 0
0.0633333325 -0.0183333326 0
0.0599999987 -0.0183333326 0
0.0566666685 -0.0183333326 0
0.0533333346 -0.0183333326 0
0.0500000007 -0.0183333326 0
0.0466666669 -0.0183333326 0
0.043333333 -0.0183333326 0
0.0399999991 -0.0183333326 0
0.0366666652 -0.0183333326 0
0.0333333351 -0.0183333326 0
0.0299999993 -0.0183333326 0
0.0266666673 -0.0183333326 0
0.0233333334 -0.0183333326 0
0.0199999996 -0.0183333326 0
0.0166666675 -0.0183333326 0
0.0133333337 -0.0183333326 0
0.00999999978 -0.0183333326 0
0.00666666683 -0.0183333326 0
0.00333333341 -0.0183333326 0
0 -0.0183333326 0
0.100000001 -0.0216666665 0
0.0966666639 -0.0216666665 0
0.0933333337 -0.0216666665 0
0.0900000036 -0.0216666665 0
0.086666666 -0.0216666665 0
0.0833333358 -0.0216666665 0
0.0799999982 -0.0216666665 0
0.0766666681 -0.0216666665 0
0.0733333305 -0.0216666665 0
0.0700000003 -0.0216666665 0
0.0666666701 -0.0216666665 0
0.0633333325 -0.0216666665 0
0.0599999987 -0.0216666665 0
0.0566666685 -0.0216666665 0
0.0533333346 -0.0216666665 0
0.0500000007 -0.0216666665 0
0.0466666669 -0.0216666665 0
0.043333333 -0.0216666665 0
0.0399999991 -0.0216666665 0
0.0366666652 -0.0216666665 0
0.0333333351 -0.0216666665 0
0.0299999993 -0.0216666665 0
0.0266666673 -0.0216666665 0
0.0233333334 -0.0216666665 0
0.0199999996 -0.0216666665 0
0.0166666675 -0.0216666665 0
0.0133333337 -0.0216666665 0
0.00999999978 -0.0216666665 0
0.00666666683 -0.0216666665 0
0.00333333341 -0.0216666665 0
0 -0.0216666665 0
0.100000001 -0.0250000004 0
0.0966666639 -0.0250000004 0
0.0933333337 -0.0250000004 0
0.0900000036 -0.0250000004 0
0.086666666 -0.0250000004 0
0.0833333358 -0.0250000004 0
0.0799999982 -0.0250000004 0
0.0766666681 -0.0250000004 0
0.0733333305 -0.0250000004 0
0.0700000003 -0.0250000004 0
0.0666666701 -0.0250000004 0
0.0633333325 -0.0250000004 0
0.0599999987 -0.0250000004 0
0.0566666685 -0.0250000004 0
0.0533333346 -0.0250000004 0
0.0500000007 -0.0250000004 0
0.0466666669 -0.0250000004 0
0.043333333 -0.0250000004 0
0.0399999991 -0.0250000004 0
0.0366666652 -0.0250000004 0
0.0333333351 -0.0250000004 0
0.0299999993 -0.0250000004 0
0.0266666673 -0.0250000004 0
0.0233333334 -0.0250000004 0
0.0199999996 -0.0250000004 0
0.0166666675 -0.0250000004 0
0.0133333337 -0.0250000004 0
0.00999999978 -0.0250000004 0
0.00666666683 -0.0250000004 0
0.00333333341 -0.0250000004 0
0 -0.0250000004 0
0.100000001 -0.0283333343 0
0.0966666639 -0.0283333343 0
0.0933333337 -0.0283333343 0
0.0900000036 -0.0283333343 0
0.086666666 -0.0283333343 0
0.0833333358 -0.0283333343 0
0.0799999982 -0.0283333343 0
0.0766666681 -0.0283333343 0
0.0733333305 -0.0283333343 0
0.0700000003 -0.0283333343 0
0.0666666701 -0.0283333343 0
0.0633333325 -0.0283333343 0
0.0599999987 -0.0283333343 0
0.0566666685 -0.0283333343 0
0.0533333346 -0.0283333343 0
0.0500000007 -0.0283333343 0
0.0466666669 -0.0283333343 0
0.043333333 -0.0283333343 0
0.0399999991 -0.0283333343 0
0.0366666652 -0.0283333343 0
0.0333333351 -0.0283333343 0
0.0299999993 -0.0283333343 0
0.0266666673 -0.0283333343 0
0.0233333334 -0.0283333343 0
0.0199999996 -0.0283333343 0
0.0166666675 -0.0283333343 0
0.0133333337 -0.0283333343 0
0.00999999978 -0.0283333343 0
0.00666666683 -0.0283333343 0
0.00333333341 -0.0283333343 0
0 -0.0283333343 0
0.100000001 -0.0316666663 0
[...]
POINT_DATA 961
SCALARS Temp float 1
LOOKUP_TABLE default
268.24068900503465
236.3905588715211
214.78630249874678
201.5552997825115
194.23169319892415
190.55104381634195
188.85994999233094
188.1439460192469
187.8622648486454
187.75847566436252
187.72239297115192
187.71047877459392
187.70672093895766
187.70558438653092
187.70525875417064
187.70519054002992
187.70525875416268
187.70558438650107
187.70672094123992
187.710478782391
187.72239294729044
187.75847569557178
187.86226503625934
188.14394601136155
188.85995118181773
190.5510423958718
194.23169577949807
201.5552939513081
214.78630730011267
236.39060115196483
268.24068869001263
236.39061805518296
203.45074938004223
181.1053662633324
167.41887906548607
159.8420750650739
156.0335693659315
154.2834371085528
153.5423101839338
153.25069656598473
153.14323026298467
153.10586345967246
153.0935234723656
153.08963081021957
153.0884533310494
153.0881159347802
153.08804525079512
153.08811593477142
153.0884533310162
153.08963081257562
153.09352348041241
153.10586343485895
153.14323029496484
153.25069675914904
153.54231017245604
154.28343832990365
156.03356786742796
159.84207765661455
167.41887273780196
181.1053707543095
203.45077955217005
236.39060462174146
214.78631149808032
181.10534142176445
158.2522489611236
144.25063793148396
136.49657580088004
132.59737777774973
130.80478867160184
130.04534423127566
129.74639093981406
129.63617242155743
129.59783286890428
129.58516669577693
129.5811696676635
129.5799602035653
129.57961353549885
129.579540893551
129.57961353548822
129.57996020352522
129.58116967006055
129.5851667039577
129.5978328431672
129.6361724534645
129.74639113504622
130.04534421099945
130.8047898983298
132.5973761755356
136.49657826483977
144.25063096758296
158.25225152614945
181.1053702926147
214.78630878809952
201.5552955717169
167.41884048968842
144.25062755638552
130.05081305287632
122.1834610066777
118.22525794070584
116.40452538509214
115.63270884861328
115.32870679046484
115.21656187747236
115.17753025138849
115.16462846292309
115.16055498423938
115.15932178776707
115.15896816201955
115.15889403941708
115.15896816200662
115.1593217877174
115.1605549866514
115.16462847114829
115.17753022481394
115.216561908771
115.32870698545943
115.63270881765635
116.40452660335032
118.2252562418243
122.18346333807911
130.0508055894795
144.25062976368315
167.41887090219984
201.55529411492208
194.23169677003182
159.8420447480977
136.49657474180052
122.18347103853029
114.25009426790255
110.25674520745221
108.41885770961856
107.63932132034273
107.33209595019207
107.21869389246287
107.17920120966694
107.16613941148383
107.16201308491476
107.16076321441597
107.16040463012702
107.16032944203019
107.16040463011149
107.16076321435636
107.16201308732512
107.16613941969891
107.17920118240215
107.21869392298268
107.33209614399993
107.63932128014464
108.41885891758508
110.2567434442528
114.250096527208
122.18346342245353
136.4965771060374
159.8420758233954
194.23169593359225
190.5510436826622
156.03353519336056
132.59737314361735
118.22526459859306
110.25674185295152
106.24421470810942
104.39671413184558
103.61273218851142
103.30359977873893
103.1894342666455
103.14965457106662
103.13649083207274
103.13233010634022
103.13106916692249
103.1307072336478
103.13063131745943
103.13070723362989
103.13106916685369
103.13233010874123
103.13649084025538
103.14965454329239
103.18943429648978
103.3035999713907
103.61273214218416
104.3967153337765
106.24421291401111
110.25674410075055
118.22525697162271
132.59737563527634
156.03356662092227
190.5510431181623
188.85995164354915
154.28340476356087
130.80478605441277
116.40453420799273
108.41885657619527
104.39671639265137
102.5442556819834
101.75790965333428
101.44773184644775
101.3331352084081
101.29318875779589
101.2799641800882
101.27578240462478
101.27451453403158
101.27415046084494
101.27407407303276
101.27415046082504
101.2745145339553
101.2757824070153
101.27996418823777
101.29318872968855
101.33313523779839
101.4477320383803
101.75790960387324
102.54425688224696
104.3967145889037
108.41885883344656
116.40452659608275
130.804788624406
154.28343636056763
188.859951206712
188.1439465242702
153.54227664082322
130.04534044343953
115.63271653007565
107.63931905304267
103.61273332730848
101.75790852969128
100.97039911412327
100.65968974984659
100.54486665352523
100.50482980362449
100.49157123744679
100.48737736476035
100.48610540509554
100.48574004002579
100.48566336304
100.48574004000442
100.48610540501402
100.48737736714254
100.49157124557271
100.5048297753255
100.54486668267283
100.65968994147946
100.97039906347882
101.75790973049197
103.61273152238046
107.6393213202949
115.63270893184746
130.04534305332817
153.54230831412409
188.1439461441545
187.86226544139083
153.25066310831676
129.74638726075918
115.32871460119094
107.33209382163622
103.30360106621676
101.44773087410854
100.65968990309112
100.3487292583613
100.23379536409801
100.19371276022143
100.18043641868908
100.17623601930568
100.17496178845506
100.17459568719599
100.17451884256198
100.17459568717378
100.17496178837045
100.17623602168266
100.18043642680152
100.19371273182624
100.23379539314486
100.34872944993732
100.65968985218161
101.44773207586708
103.30359926213549
107.33209609511502
115.32870701082453
129.7463898887142
153.25069481341922
187.8622650849205
187.75847602555504
153.14319656337835
129.63616850189774
115.21656945019575
107.21869152640069
103.18943531894061
101.33313400127864
100.54486657256811
100.23379512982025
100.11881062389917
100.07870636686863
100.06542131598955
100.061217610064
100.05994219177799
100.05957569472373
100.05949875825772
100.059575694701
100.05994219169159
100.06121761243833
100.06542132409608
100.07870633843143
100.11881065291736
100.23379532142764
100.54486652168873
101.33313520373447
103.18943351568703
107.21869380297491
115.21656186353563
129.63617113727992
153.14322828081995
187.75847567828094
187.72239329724985
153.1058297228968
129.5978289136152
115.17753779013579
107.17919881030342
103.14965559129517
101.29318751902183
100.50482969144406
100.1937124948022
100.07870633578509
100.03859247488133
100.0253034199125
100.02109813958964
100.01982213671224
100.01945543891748
100.01937845494164
100.01945543889443
100.01982213662498
100.02109814196265
100.0253034280171
100.03859244642888
100.07870636480158
100.19371268645064
100.5048296406365
101.29318872185713
103.14965378851166
107.17920108821524
115.1775302050124
129.59783155181412
153.10586144482104
187.72239295332602
187.71047912329328
153.09348975870856
129.58516276501794
115.16463602739705
107.1661370385116
103.13649187941704
101.27996296877035
100.49157115299808
100.18043618110242
100.06542131279905
100.02530344782332
100.01201266171414
100.00780667578218
100.00653040166193
100.00616360778757
100.00608660059717
100.00616360776434
100.00653040157422
100.00780667815489
100.01201266981857
100.02530341936645
100.06542134182004
100.18043637277832
100.49157110223908
101.27996417177985
103.136490076848
107.1661393169449
115.16462844285296
129.58516540421394
153.0935214821682
187.71047878051965
187.70672128323403
153.08959709188588
129.58116573235083
115.16056254430526
107.16201070758719
103.13233114946871
101.27578118914946
100.48737727622193
100.17623577765305
100.06121760282518
100.02109816345737
100.00780667173828
100.00360038762354
100.00232399477163
100.00195715748552
100.001880139583
100.00195715746214
100.00232399468379
100.00360038999615
100.00780667984293
100.02109813499935
100.06121763184983
100.17623596934318
100.4873772254872
101.27578239222986
103.13232934698537
107.16201298620811
115.16055495996369
129.58116837187936
153.08962881584478
187.70672094083486
187.7055847287798
153.08841961058496
129.57995626613743
115.15932934574487
107.16076083500377
103.13107020800267
101.27451331652242
100.4861053145444
100.17496154479757
100.05994218254088
100.019822158584
100.00653039562205
100.00232399277584
100.00104755098141
100.00068069523223
100.00060367267886
100.00068069520879
100.0010475508935
100.00232399514847
100.00653040372697
100.01982213012586
100.0599422115676
100.17496173649401
100.48610526382
101.27451451962926
103.1310684055504
107.16076311368798
115.15932176146985
129.57995890577124
153.08845133469876
187.70558438649695
187.70525909653944
153.08808221443107
129.5796095982097
115.15897572015844
107.16040225088672
103.13070827491737
101.27414924353424
100.48573994968262
100.17459544375082
100.05957568570209
100.01945546100616
100.00616360196501
100.00195715570705
100.00068069544965
100.00031383253666
100.00023680814517
100.00031383251323
100.0006806953618
100.00195715807985
100.00616361007003
100.01945543254833
100.05957571472972
100.17459563544975
100.4857398989622
101.27415044665025
103.13070647247586
107.16040452959102
115.15896813590432
129.5796122378755
153.0881139385908
187.70525875429095
187.7051908824761
153.08801153052462
129.57953695634765
115.15890159764835
107.16032706288635
103.13063235883067
101.27407285582684
100.48566327280454
100.174518599226
100.05949874934647
100.01937847714126
100.00608659488556
100.00188013791566
100.00060367300753
100.00023680825633
100.0001597833876
100.00023680823301
100.00060367291971
100.00188014028856
100.00608660299069
100.01937844868337
100.05949877837442
100.17451879092573
100.48566322208548
101.27407405894564
103.13063055639263
107.16032934159668
115.15889401340077
129.5795395960227
153.08804325469677
187.70519054023782
187.70525909658429
153.08808221447828
129.57960959825985
115.15897572021186
107.16040225094342
103.13070827497707
101.2741492435963
100.48573994974632
100.17459544381562
100.05957568576754
100.01945546107191
100.00616360203084
100.00195715577296
100.00068069551564
100.00031383260263
100.00023680821111
100.00031383257927
100.00068069542785
100.00195715814581
100.006163610136
100.01945543261417
100.05957571479563
100.17459563551544
100.48573989902766
101.27415044671548
103.13070647254054
107.16040452965495
115.15896813596733
129.57961223793717
153.08811393865074
187.7052587543489
187.70558472892324
153.08841961073594
129.57995626629898
115.15932934591882
107.16076083519009
103.13107020819989
101.27451331672813
100.48610531475596
100.1749615450129
100.05994218275818
100.01982215880233
100.0065303958407
100.00232399299463
100.00104755120024
100.00068069545104
100.00060367289763
100.00068069542766
100.0010475511124
100.00232399536736
100.00653040394576
100.01982213034482
100.05994221178612
100.17496173671228
100.48610526403766
101.27451451984588
103.13106840576552
107.16076311390063
115.15932176167901
129.57995890597584
153.08845133489754
187.7055843866887
187.70672128370677
153.08959709238417
129.5811657328865
115.16056254488443
107.16201070820959
103.13233115012817
101.27578118983682
100.4873772769279
100.1762357783698
100.06121760354755
100.02109816418215
100.00780667246406
100.00360038834957
100.00232399549779
100.00195715821158
100.00188014030897
100.00195715818825
100.00232399540984
100.00360039072227
100.00780668056899
100.02109813572517
100.06121763257524
100.17623597006765
100.48737722620994
101.27578239294951
103.13232934769987
107.16201298691479
115.16055496065918
129.58116837255963
153.08962881650598
187.70672094147264
187.7104791250071
153.09348976051467
129.5851627669569
115.16463602948853
107.1661370407502
103.1364918817777
101.27996297121891
100.4915711555016
100.18043618363593
100.06542131534661
100.02530345037658
100.01201266426895
100.00780667833735
100.00653040421714
100.00616361034272
100.00608660315223
100.00616361031939
100.00653040412934
100.00780668070989
100.0120126723734
100.02530342192085
100.06542134437323
100.18043637532921
100.49157110478474
101.2799641743159
103.13649007936768
107.16613931943857
115.16462844530864
129.5851654066177
153.093521484505
187.71047878277375
187.72239331466082
153.10582974103602
129.5978289325195
115.17753780977448
107.17919883057083
103.14965561203763
101.29318754007902
100.50482971268305
100.19371251613227
100.07870635715403
100.03859249626406
100.02530344129906
100.02109816097663
100.01982215809913
100.01945546030429
100.01937847632821
100.01945546028088
100.01982215801132
100.02109816334878
100.02530344940217
100.03859246781157
100.07870638617827
100.19371270781319
100.5048296619693
101.29318874313168
103.14965380968088
107.1792011092087
115.17753022573352
129.59783157214133
153.10586146461296
187.7223929724306
187.75847600609166
153.14319654358164
129.63616848254293
115.21656943174365
107.21869150894396
103.18943530230413
101.33313398518288
100.5448665567609
100.23379511413519
100.11881060825147
100.07870635122562
100.06542130034315
100.06121759441419
100.05994217612613
100.05957567907097
100.05949874260448
100.0595756790476
100.05994217603836
100.06121759678535
100.0654213084438
100.07870632278075
100.11881063726965
100.23379530578515
100.54486650605506
101.33313518811558
103.18943350009546
107.21869378743783
115.21656184810645
129.63617112204926
153.14322826591885
187.7584756638707
187.86226557521175
153.25066324800974
129.74638740699572
115.32871475373392
107.33209397933896
103.30360122747874
101.4477310374279
100.6596900673952
100.34872942304526
100.23379552889146
100.19371292503118
100.18043658349329
100.1762361841035
100.17496195324931
100.17459585198878
100.17451900735408
100.17459585196548
100.17496195316168
100.17623618647272
100.1804365915882
100.19371289660322
100.2337955578956
100.34872961462116
100.65969001670828
101.44773224005469
103.30359942565677
107.33209625744458
115.32870717120814
129.74639004617745
153.2506949668177
187.86226523301968
188.1439463773085
153.54227649220482
130.04534030013278
115.63271639534744
107.63931892637045
103.61273320610918
101.75790841125402
100.97039899665559
100.65968963252486
100.54486653611184
100.50482968611026
100.49157111987144
100.48737724715578
100.48610528747872
100.48573992240449
100.48566324541716
100.4857399223813
100.48610528739133
100.48737724952109
100.49157112795503
100.50482965771731
100.54486656508578
100.65968982393504
100.970398946011
101.75790961314898
103.61273140523562
107.63932120349138
115.6327088156994
130.04534293845535
153.5423082015395
188.14394603519955
188.85995282494787
154.28340599665287
130.80478734367458
116.40453554760524
108.41885795220469
104.39671778951224
102.54425708816547
101.75791106259513
101.44773325632823
101.33313661823276
101.29319016748629
101.27996558969286
101.2757838141889
101.27451594357915
101.27415187038655
101.27407548257224
101.27415187036343
101.27451594349209
101.27578381654716
101.27996559775472
101.29319013916135
101.33313664714608
101.44773344739244
101.75791101203959
102.54425828842885
104.39671599080843
108.41886022699491
116.40452797491957
130.80478997986845
154.28343768218122
188.85995248306116
190.5510442062617
156.03353576547096
132.59737380120356
118.22526534252538
110.25674265526457
106.24421553768518
104.39671496880854
103.6127330253668
103.30360061409418
103.1894351008745
103.14965540470102
103.13649166544465
103.13233093960922
103.13107000015454
103.13070806686734
103.13063215067507
103.13070806684439
103.13107000006782
103.13233094195523
103.13649167346831
103.14965537649981
103.18943512967373
103.30360080448656
103.61273297498497
104.39671616569562
106.24421374358704
110.25674492493631
118.2252577854696
132.5973764324984
156.03356739542437
190.55104386492164
194.2316934639378
159.84204141072678
136.49657152601887
122.18346795447675
114.2500912550075
110.25674220380688
108.41885469443584
107.63931829384141
107.33209291677699
107.21869085563935
107.17919817137731
107.166136372624
107.16201004585012
107.16076017528245
107.16040159097163
107.16032640286844
107.16040159094878
107.16076017519653
107.16201004817631
107.16613638058395
107.17919814338629
107.21869088423935
107.33209310595794
107.6393182437745
108.4188558848634
110.25674041873489
114.25009351431285
122.18346042976128
136.4965741469197
159.8420729211082
194.23169312382157
201.55530000520022
167.41884538972494
144.2506330897076
130.05081908964098
122.18346718982198
118.22526412702305
116.40453155132359
115.63271499847856
115.32871293121694
115.2165680139918
115.17753638616752
115.1646345970495
115.16056111813856
115.1593279215915
115.15897429582085
115.15890017321144
115.15897429579834
115.15932792150684
115.16056112043438
115.16463460491043
115.17753635851052
115.21656804226737
115.32871311837089
115.63271494894134
116.40453273035749
118.22526235822694
122.18346942986184
130.0508116262441
144.25063569042126
167.4188766647745
201.55529966756103
214.78630293307577
181.10533306728837
158.25224257028336
144.25063186897532
136.49656954218733
132.5973713684057
130.80478217178364
130.04533768590284
129.74638437396175
129.6361658473271
129.59782629150766
129.58516011726226
129.5811630887764
129.5799536245606
129.57960695645846
129.5795343145007
129.57960695643644
129.57995362447747
129.58116309102883
129.58516012497813
129.59782626434762
129.63616587511018
129.7463845579672
130.04533763719232
130.80478333231088
132.5973696265554
136.49657174948246
144.25062451165704
158.25224513530864
181.1053639213242
214.7863025999396
236.39062855539714
203.45077464162304
181.1053942026695
167.4189061668457
159.84210190938137
156.03359606315948
154.28346373134153
153.54233677089178
153.2507231371518
153.14325682774592
153.10589002202587
153.0935500338726
153.08965737144615
153.0884798921876
153.08814249589167
153.08807181189817
153.08814249587024
153.08847989210662
153.0896573736395
153.093550041389
153.1058899955595
153.1432568548303
153.25072331661025
153.54233672337998
154.2834648641704
156.03359436226359
159.84210406583733
167.4188989766204
181.10539671045692
203.45080481374416
236.39062822960744
268.2406887954607
236.39057257949833
214.78630480229558
201.55530074712377
194.23169350035263
190.55104382684445
188.8599498663118
188.14394583260727
187.86226463675067
187.75847544265162
187.72239274586664
187.7104785480821
187.70672071204652
187.70558415949583
187.70525852709872
187.70519031294756
187.7052585270778
187.70558415941784
187.70672071416388
187.7104785553387
187.7223927203115
187.75847546880738
187.8622648100863
188.14394578671468
188.85995096084815
190.5510421832139
194.23169558460228
201.5552937967621
214.7863072268126
236.3906017522897
268.24068848045886
