# vtk DataFile Version 2.0
Unstructured Grid Example
ASCII
DATASET UNSTRUCTURED_GRID

POINTS 961 float
0.100000001 0.00499999989 0
0.0966666639 0.00499999989 0
0.0933333337 0.00499999989 0
0.0900000036 0.00499999989 0
0.086666666 0.00499999989 0
0.0833333358 0.00499999989 0
0.0799999982 0.00499999989 0
0.0766666681 0.00499999989 0
0.0733333305 0.00499999989 0
0.0700000003 0.00499999989 0
0.0666666701 0.00499999989 0
0.0633333325 0.00499999989 0
0.0599999987 0.00499999989 0
0.0566666685 0.00499999989 0
0.0533333346 0.00499999989 0
0.0500000007 0.00499999989 0
0.0466666669 0.00499999989 0
0.043333333 0.00499999989 0
0.0399999991 0.00499999989 0
0.0366666652 0.00499999989 0
0.0333333351 0.00499999989 0
0.0299999993 0.00499999989 0
0.0266666673 0.00499999989 0
0.0233333334 0.00499999989 0
0.0199999996 0.00499999989 0
0.0166666675 0.00499999989 0
0.0133333337 0.00499999989 0
0.00999999978 0.00499999989 0
0.00666666683 0.00499999989 0
0.00333333341 0.00499999989 0
0 0.00499999989 0
0.100000001 0.00166666671 0
0.0966666639 0.00166666671 0
0.0933333337 0.00166666671 0
0.0900000036 0.00166666671 0
0.086666666 0.00166666671 0
0.0833333358 0.00166666671 0
0.0799999982 0.00166666671 0
0.0766666681 0.00166666671 0
0.0733333305 0.00166666671 0
0.0700000003 0.00166666671 0
0.0666666701 0.00166666671 0
0.0633333325 0.00166666671 0
0.0599999987 0.00166666671 0
0.0566666685 0.00166666671 0
0.0533333346 0.00166666671 0
0.0500000007 0.00166666671 0
0.0466666669 0.00166666671 0
0.043333333 0.00166666671 0
0.0399999991 0.00166666671 0
0.0366666652 0.00166666671 0
0.0333333351 0.00166666671 0
0.0299999993 0.00166666671 0
0.0266666673 0.00166666671 0
0.0233333334 0.00166666671 0
0.0199999996 0.00166666671 0
0.0166666675 0.00166666671 0
0.0133333337 0.00166666671 0
0.00999999978 0.00166666671 0
0.00666666683 0.00166666671 0
0.00333333341 0.00166666671 0
0 0.00166666671 0
0.100000001 -0.00166666671 0
0.0966666639 -0.00166666671 0
0.0933333337 -0.00166666671 0
0.0900000036 -0.00166666671 0
0.086666666 -0.00166666671 0
0.0833333358 -0.00166666671 0
0.0799999982 -0.00166666671 0
0.0766666681 -0.00166666671 0
0.0733333305 -0.00166666671 0
0.0700000003 -0.00166666671 0
0.0666666701 -0.00166666671 0
0.0633333325 -0.00166666671 0
0.0599999987 -0.00166666671 0
0.0566666685 -0.00166666671 0
0.0533333346 -0.00166666671 0
0.0500000007 -0.00166666671 0
0.0466666669 -0.00166666671 0
0.043333333 -0.00166666671 0
0.0399999991 -0.00166666671 0
0.0366666652 -0.00166666671 0
0.0333333351 -0.00166666671 0
0.0299999993 -0.00166666671 0
0.0266666673 -0.00166666671 0
0.0233333334 -0.00166666671 0
0.0199999996 -0.00166666671 0
0.0166666675 -0.00166666671 0
0.0133333337 -0.00166666671 0
0.00999999978 -0.00166666671 0
0.00666666683 -0.00166666671 0
0.00333333341 -0.00166666671 0
0 -0.00166666671 0
0.100000001 -0.00499999989 0
0.0966666639 -0.00499999989 0
0.0933333337 -0.00499999989 0
0.0900000036 -0.00499999989 0
0.086666666 -0.00499999989 0
0.0833333358 -0.00499999989 0
0.0799999982 -0.00499999989 0
0.0766666681 -0.00499999989 0
0.0733333305 -0.00499999989 0
0.0700000003 -0.00499999989 0
0.0666666701 -0.00499999989 0
0.0633333325 -0.00499999989 0
0.0599999987 -0.00499999989 0
0.0566666685 -0.00499999989 0
0.0533333346 -0.00499999989 0
0.0500000007 -0.00499999989 0
0.0466666669 -0.00499999989 0
0.043333333 -0.00499999989 0
0.0399999991 -0.00499999989 0
0.0366666652 -0.00499999989 0
0.0333333351 -0.00499999989 0
0.0299999993 -0.00499999989 0
0.0266666673 -0.00499999989 0
0.0233333334 -0.00499999989 0
0.0199999996 -0.00499999989 0
0.0166666675 -0.00499999989 0
0.0133333337 -0.00499999989 0
0.00999999978 -0.00499999989 0
0.00666666683 -0.00499999989 0
0.00333333341 -0.00499999989 0
0 -0.00499999989 0
0.100000001 -0.00833333377 0
0.0966666639 -0.00833333377 0
0.0933333337 -0.00833333377 0
0.0900000036 -0.00833333377 0
0.086666666 -0.00833333377 0
0.0833333358 -0.00833333377 0
0.0799999982 -0.00833333377 0
0.0766666681 -0.00833333377 0
0.0733333305 -0.00833333377 0
0.0700000003 -0.00833333377 0
0.0666666701 -0.00833333377 0
0.0633333325 -0.00833333377 0
0.0599999987 -0.00833333377 0
0.0566666685 -0.00833333377 0
0.0533333346 -0.00833333377 0
0.0500000007 -0.00833333377 0
0.0466666669 -0.00833333377 0
0.043333333 -0.00833333377 0
0.0399999991 -0.00833333377 0
0.0366666652 -0.00833333377 0
0.0333333351 -0.00833333377 0
0.0299999993 -0.00833333377 0
0.0266666673 -0.00833333377 0
0.0233333334 -0.00833333377 0
0.0199999996 -0.00833333377 0
0.0166666675 -0.00833333377 0
0.0133333337 -0.00833333377 0
0.00999999978 -0.00833333377 0
0.00666666683 -0.00833333377 0
0.00333333341 -0.00833333377 0
0 -0.00833333377 0
0.100000001 -0.0116666667 0
0.0966666639 -0.0116666667 0
0.0933333337 -0.0116666667 0
0.0900000036 -0.0116666667 0
0.086666666 -0.0116666667 0
0.0833333358 -0.0116666667 0
0.0799999982 -0.0116666667 0
0.0766666681 -0.0116666667 0
0.0733333305 -0.0116666667 0
0.0700000003 -0.0116666667 0
0.0666666701 -0.0116666667 0
0.0633333325 -0.0116666667 0
0.0599999987 -0.0116666667 0
0.0566666685 -0.0116666667 0
0.0533333346 -0.0116666667 0
0.0500000007 -0.0116666667 0
0.0466666669 -0.0116666667 0
0.043333333 -0.0116666667 0
0.0399999991 -0.0116666667 0
0.0366666652 -0.0116666667 0
0.0333333351 -0.0116666667 0
0.0299999993 -0.0116666667 0
0.0266666673 -0.0116666667 0
0.0233333334 -0.0116666667 0
0.0199999996 -0.0116666667 0
0.0166666675 -0.0116666667 0
0.0133333337 -0.0116666667 0
0.00999999978 -0.0116666667 0
0.00666666683 -0.0116666667 0
0.00333333341 -0.0116666667 0
0 -0.0116666667 0
0.100000001 -0.0149999997 0
0.0966666639 -0.0149999997 0
0.0933333337 -0.0149999997 0
0.0900000036 -0.0149999997 0
0.086666666 -0.0149999997 0
0.0833333358 -0.0149999997 0
0.0799999982 -0.0149999997 0
0.0766666681 -0.0149999997 0
0.0733333305 -0.0149999997 0
0.0700000003 -0.0149999997 0
0.0666666701 -0.0149999997 0
0.0633333325 -0.0149999997 0
0.0599999987 -0.0149999997 0
0.0566666685 -0.0149999997 0
0.0533333346 -0.0149999997 0
0.0500000007 -0.0149999997 0
0.0466666669 -0.0149999997 0
0.043333333 -0.0149999997 0
0.0399999991 -0.0149999997 0
0.0366666652 -0.0149999997 0
0.0333333351 -0.0149999997 0
0.0299999993 -0.0149999997 0
0.0266666673 -0.0149999997 0
0.0233333334 -0.0149999997 0
0.0199999996 -0.0149999997 0
0.0166666675 -0.0149999997 0
0.0133333337 -0.0149999997 0
0.00999999978 -0.0149999997 0
0.00666666683 -0.0149999997 0
0.00333333341 -0.0149999997 0
0 -0.0149999997 0
0.100000001 -0.0183333326 0
0.0966666639 -0.0183333326 0
0.0933333337 -0.0183333326 0
0.0900000036 -0.0183333326 0
0.086666666 -0.0183333326 0
0.0833333358 -0.0183333326 0
0.0799999982 -0.0183333326 0
0.0766666681 -0.0183333326 0
0.0733333305 -0.0183333326 0
0.0700000003 -0.0183333326 0
0.0666666701 -0.0183333326 0
0.0633333325 -0.0183333326 0
0.0599999987 -0.0183333326 0
0.0566666685 -0.0183333326 0
0.0533333346 -0.0183333326 0
0.0500000007 -0.0183333326 0
0.0466666669 -0.0183333326 0
0.043333333 -0.0183333326 0
0.0399999991 -0.0183333326 0
0.0366666652 -0.0183333326 0
0.0333333351 -0.0183333326 0
0.0299999993 -0.0183333326 0
0.0266666673 -0.0183333326 0
0.0233333334 -0.0183333326 0
0.0199999996 -0.0183333326 0
0.0166666675 -0.0183333326 0
0.0133333337 -0.0183333326 0
0.00999999978 -0.0183333326 0
0.00666666683 -0.0183333326 0
0.00333333341 -0.0183333326 0
0 -0.0183333326 0
0.100000001 -0.0216666665 0
0.0966666639 -0.0216666665 0
0.0933333337 -0.0216666665 0
0.0900000036 -0.0216666665 0
0.086666666 -0.0216666665 0
0.0833333358 -0.0216666665 0
0.0799999982 -0.0216666665 0
0.0766666681 -0.0216666665 0
0.0733333305 -0.0216666665 0
0.0700000003 -0.0216666665 0
0.0666666701 -0.0216666665 0
0.0633333325 -0.0216666665 0
0.0599999987 -0.0216666665 0
0.0566666685 -0.0216666665 0
0.0533333346 -0.0216666665 0
0.0500000007 -0.0216666665 0
0.0466666669 -0.0216666665 0
0.043333333 -0.0216666665 0
0.0399999991 -0.0216666665 0
0.0366666652 -0.0216666665 0
0.0333333351 -0.0216666665 0
0.0299999993 -0.0216666665 0
0.0266666673 -0.0216666665 0
0.0233333334 -0.0216666665 0
0.0199999996 -0.0216666665 0
0.0166666675 -0.0216666665 0
0.0133333337 -0.0216666665 0
0.00999999978 -0.0216666665 0
0.00666666683 -0.0216666665 0
0.00333333341 -0.0216666665 0
0 -0.0216666665 0
0.100000001 -0.0250000004 0
0.0966666639 -0.0250000004 0
0.0933333337 -0.0250000004 0
0.0900000036 -0.0250000004 0
0.086666666 -0.0250000004 0
0.0833333358 -0.0250000004 0
0.0799999982 -0.0250000004 0
0.0766666681 -0.0250000004 0
0.0733333305 -0.0250000004 0
0.0700000003 -0.0250000004 0
0.0666666701 -0.0250000004 0
0.0633333325 -0.0250000004 0
0.0599999987 -0.0250000004 0
0.0566666685 -0.0250000004 0
0.0533333346 -0.0250000004 0
0.0500000007 -0.0250000004 0
0.0466666669 -0.0250000004 0
0.043333333 -0.0250000004 0
0.0399999991 -0.0250000004 0
0.0366666652 -0.0250000004 0
0.0333333351 -0.0250000004 0
0.0299999993 -0.0250000004 0
0.0266666673 -0.0250000004 0
0.0233333334 -0.0250000004 0
0.0199999996 -0.0250000004 0
0.0166666675 -0.0250000004 0
0.0133333337 -0.0250000004 0
0.00999999978 -0.0250000004 0
0.00666666683 -0.0250000004 0
0.00333333341 -0.0250000004 0
0 -0.0250000004 0
0.100000001 -0.0283333343 0
0.0966666639 -0.0283333343 0
0.0933333337 -0.0283333343 0
0.0900000036 -0.0283333343 0
0.086666666 -0.0283333343 0
0.0833333358 -0.0283333343 0
0.0799999982 -0.0283333343 0
0.0766666681 -0.0283333343 0
0.0733333305 -0.0283333343 0
0.0700000003 -0.0283333343 0
0.0666666701 -0.0283333343 0
0.0633333325 -0.0283333343 0
0.0599999987 -0.0283333343 0
0.0566666685 -0.0283333343 0
0.0533333346 -0.0283333343 0
0.0500000007 -0.0283333343 0
0.0466666669 -0.0283333343 0
0.043333333 -0.0283333343 0
0.0399999991 -0.0283333343 0
0.0366666652 -0.0283333343 0
0.0333333351 -0.0283333343 0
0.0299999993 -0.0283333343 0
0.0266666673 -0.0283333343 0
0.0233333334 -0.0283333343 0
0.0199999996 -0.0283333343 0
0.0166666675 -0.0283333343 0
0.0133333337 -0.0283333343 0
0.00999999978 -0.0283333343 0
0.00666666683 -0.0283333343 0
0.00333333341 -0.0283333343 0
0 -0.0283333343 0
0.100000001 -0.0316666663 0
[...]
POINT_DATA 961
SCALARS Temp float 1
LOOKUP_TABLE default
268.2407267316985
236.3905930100343
214.78632366893268
201.55531124904425
194.23169880940347
190.5510463322051
188.85995103631564
188.1439464234237
187.86226499571248
187.75847571499517
187.7223929877449
187.71047877979754
187.70672094052662
187.70558438698777
187.70525875429973
187.7051905400659
187.70525875417462
187.70558438651207
187.70672094126962
187.71047878248638
187.72239294758785
187.7584756964529
187.8622650387176
188.14394601776402
188.85995119724433
190.5510424299395
194.2316958480576
201.55529407699407
214.78630752085232
236.39060144792109
268.2406890255238
236.390679420214
203.45078915803313
181.10538967398625
167.4188914877784
159.84208107858205
156.03357204444416
154.2834382148032
153.54231061071448
153.25069672085547
153.14323031618952
153.10586347707826
153.09352347781643
153.0896308118613
153.08845333152686
153.08811593491507
153.08804525083272
153.08811593478384
153.08845333102778
153.0896308126069
153.0935234805138
153.10586343517846
153.143230295923
153.2506967618633
153.5423101796597
154.28343834765406
156.03356790762132
159.84207773924788
167.41887289091062
181.1053710054113
203.4507800004703
236.39060504717457
214.78640281242733
181.1053914879183
158.25227646954843
144.25065204149303
136.49658249321777
132.59738071731994
130.80478987326558
130.04534469121012
129.74639110567142
129.63617247824877
129.59783288737415
129.5851667015414
129.58116966939468
129.57996020406765
129.57961353564022
129.57954089359032
129.57961353550115
129.57996020353735
129.58116967009403
129.58516670406823
129.59783284352312
129.63617245456115
129.74639113825646
130.04534421986597
130.8047899212372
132.59737623028312
136.496578384063
144.25063119813333
158.252251910741
181.10537079795526
214.78631038247548
201.55539404282143
167.41889887484953
144.25065915447422
130.0508289801538
122.18346845238861
118.22526117374856
116.4045266944922
115.63270934597331
115.32870696868372
115.21656193806545
115.17753027104095
115.16462846903325
115.16055498606845
115.15932178829625
115.15896816216828
115.15889403945833
115.15896816202006
115.15932178773
115.16055498668666
115.16462847126671
115.17753022520385
115.21656191000498
115.32870698918961
115.6327088283619
116.40452663231058
118.22525631502172
122.18346350885743
130.05080595057015
144.25063042538494
167.4188718434961
201.55529402798712
194.2318017560634
159.8421078376122
136.49660924124936
122.18348838817931
114.25010234083426
110.25674869535399
108.41885911555406
107.6393218520479
107.33209613996623
107.2186939567555
107.1792012304529
107.16613941792811
107.16201308683894
107.16076321497157
107.16040463028273
107.16032944207336
107.16040463012537
107.16076321436898
107.16201308736046
107.1661394198189
107.1792011828032
107.2186939242751
107.33209614799279
107.63932129190978
108.41885895047172
110.25674353098991
114.25009674194976
122.18346391811852
136.49657815915455
159.84207777536946
194.23169817341704
190.55115580129123
156.03360102186846
132.59740913478643
118.22528276105504
110.25675032001492
106.2442183689444
104.39671560735245
103.61273274618745
103.30359997759695
103.18943433394038
103.14965459279695
103.13649083880144
103.13233010834695
103.13106916750112
103.1307072338098
103.13063131750411
103.13070723364399
103.13106916686574
103.13233010877414
103.13649084036707
103.1496545436671
103.18943429770387
103.30359997516895
103.61273215342506
104.39671536561929
106.24421299966927
110.25674431962494
118.22525750633591
132.59737690091376
156.03356958054238
190.55105062633297
188.86006416604468
154.28347088688028
130.8048223403429
116.40455262697996
108.41886520889844
104.3967201399768
102.54425719667827
101.7579102269707
101.4477320512771
101.3331352777858
101.29318878021107
101.27996418703097
101.27578240669557
101.27451453462862
101.27415046101206
101.27407407307876
101.27415046083931
101.27451453396618
101.27578240704345
101.27996418833165
101.29318872999883
101.3331352387908
101.44773204142929
101.75790961282453
102.54425690724212
104.39671465508094
108.41885899983356
116.40452699797018
130.8047895929891
154.28343886129775
188.85995832078473
188.1440526461058
153.54234085228816
130.04537624251643
115.63273487053601
107.63932770188413
103.61273709916054
101.75791005989811
100.97039969535096
100.65968995788707
100.54486672412902
100.50482982647218
100.49157124453262
100.48737736687605
100.48610540570611
100.48574004019683
100.48566336308707
100.48574004001863
100.4861054050236
100.48737736716474
100.4915712456432
100.50482977554898
100.54486668335528
100.65968994347301
100.9703990690082
101.75790974491333
103.61273155727216
107.63932139699907
115.63270907995745
130.0453432844088
153.54230859553599
188.14394653653068
187.86236478359191
153.25072544537883
129.74642255731723
115.32873279535488
107.33210243496247
103.30360483425089
101.4477324070213
100.65969048683397
100.34872946778997
100.23379543532268
100.19371278331313
100.18043642586235
100.17623602145048
100.1749617890748
100.17459568736979
100.17451884260983
100.17459568718789
100.17496178837888
100.17623602169971
100.18043642685114
100.1937127319688
100.2337953935301
100.34872945089872
100.65968985433742
101.44773207993694
103.30359926718076
107.33209609018377
115.32870694062574
129.74638951876307
153.25069310292608
187.86225857612737
187.758575904087
153.1432594116221
129.63620379102508
115.21658760114025
107.21870011767484
103.18943908047154
101.33313553361918
100.54486715702387
100.2337953398558
100.11881069544833
100.07870639010191
100.06542132321731
100.06121761222802
100.0599421924041
100.05957569489952
100.05949875830613
100.05957569471522
100.05994219169972
100.0612176124534
100.06542132413595
100.07870633853145
100.11881065313209
100.2337953217623
100.54486652173429
101.33313520136129
103.18943350323639
107.21869375758745
115.21656172269961
129.63617072368226
153.1432270392354
187.7584696624148
187.7225039263272
153.1058941861918
129.59786449977977
115.17755598767424
107.17920740912979
103.14965935584388
101.29318905342522
100.50483027716477
100.19371270548854
100.07870640762553
100.03859249823176
100.02530342718349
100.02109814176838
100.01982213734311
100.01945543909484
100.01937845499053
100.0194554389091
100.01982213663403
100.02109814198067
100.02530342806537
100.03859244655084
100.07870636506537
100.19371268686595
100.5048296407179
101.2931887191371
103.14965377480709
107.17920104356129
115.1775301009975
129.59783142270686
153.10586180389942
187.72239767330726
187.71059039386992
153.0935543797388
129.58519843610432
115.16465427920265
107.16614567143992
103.1364956612637
101.27996451089344
100.49157174184916
100.18043639297001
100.06542138506035
100.02530347131672
100.01201266903168
100.00780667797555
100.00653040229724
100.0061636079662
100.00608660064663
100.00616360777977
100.00653040158558
100.00780667818128
100.01201266989602
100.02530341958622
100.06542134239605
100.18043637413354
100.49157110495888
101.27996417586472
103.13649007889511
107.16613930402282
115.1646283898166
129.58516535590513
153.09352199432078
187.71048413726564
187.70682205280696
153.0896603726501
129.5812012986312
115.16058090143878
107.16201941466315
103.1323349671014
101.27578274587232
100.48737787045152
100.17623599136085
100.06121767568152
100.02109818713474
100.00780667911083
100.00360038983288
100.00232399541147
100.00195715766546
100.001880139633
100.00195715747857
100.00232399469868
100.00360039003552
100.00780667996746
100.02109813538364
100.06121763297617
100.17623597244419
100.48737723340263
101.27578241058991
103.13232938429184
107.16201304665405
115.16055501120327
129.581168217472
153.08962798628443
187.70671579512646
187.70568474737456
153.08848250976993
129.57999232086914
115.159347991204
107.16076967718695
103.13107408047941
101.27451489358428
100.48610591578654
100.17496176078124
100.059942256099
100.01982218246879
100.00653040305363
100.00232399500159
100.00104755162572
100.00068069541334
100.00060367272943
100.0006806952263
100.00104755091228
100.00232399520283
100.00653040390728
100.01982213070967
100.05994221337866
100.17496174183654
100.48610527868424
101.27451455821985
103.13106849753122
107.16076330899723
115.15932210071337
129.57995923942653
153.08845012312946
187.70557848937995
187.7053635173181
153.08814916332284
129.57964692980386
115.15899484119232
107.16041126660299
103.13071220948603
101.27415084192991
100.48574055792632
100.17459566192858
100.05957575991863
100.01945548508097
100.00616360944969
100.00195715794716
100.0006806960978
100.00031383271886
100.00023680819625
100.00031383253177
100.00068069538426
100.001957158148
100.00616361030205
100.01945543331922
100.05957571719323
100.17459564297485
100.48573992080766
101.27415050654102
103.13070662649746
107.16040489836196
115.15896895062939
129.57961384828224
153.0881167766063
187.70525725923002
187.7053179156369
153.08808264573264
129.5795755565591
115.15892111672804
107.16033621241353
103.13063633865951
101.27407446922136
100.48566388585556
100.1745188188869
100.05949882400371
100.01937850134246
100.00608660240545
100.00188014016535
100.00060367365819
100.00023680843927
100.00015978343893
100.00023680825214
100.00060367294454
100.00188014036605
100.00608660325754
100.01937844958009
100.05949878127728
100.17451879993162
100.48566324873399
101.2740741338287
103.13063075566446
107.16032984416475
115.15889522615362
129.57954247502508
153.08805025901117
187.70521165751595
187.70538621922864
153.08815341246378
129.57964826053046
115.15899527634393
107.1604114187087
103.13071226218375
101.27415085973176
100.48574056374817
100.17459566379173
100.05957576052558
100.01945548530442
100.0061636095601
100.00195715802539
100.00068069616705
100.00031383278568
100.00023680826251
100.00031383259855
100.00068069545347
100.00195715822615
100.00616361041259
100.0194554335429
100.05957571780101
100.17459564484001
100.48573992663324
101.27415052434947
103.13070667920533
107.16040505048227
115.15896938579952
129.57961517903092
153.0881210257779
187.70527996114595
187.70568946857432
153.08848685547846
129.57999380507266
115.15934858446039
107.16076990241967
103.13107416336163
101.27451492273943
100.48610592567223
100.17496176408955
100.05994225726623
100.01982218296831
100.00653040335295
100.0023239952428
100.00104755185056
100.00068069563378
100.00060367294894
100.00068069544669
100.0010475511372
100.00232399544406
100.00653040420673
100.01982213121025
100.05994221454836
100.17496174515082
100.48610528858222
101.27451458739719
103.13106858044947
107.16076353428303
115.15932269403996
129.57996072371574
153.088454468933
187.70558321067014
187.70682206825595
153.0896606189727
129.58120221809602
115.16058136946964
107.16201962493948
103.13233505178643
101.27578277789331
100.48737788214449
100.1762359957312
100.06121767756267
100.02109818821177
100.00780667993955
100.00360039058793
100.00232399614549
100.00195715839361
100.00188014035999
100.00195715820671
100.00232399543256
100.00360039079057
100.00780668079658
100.02109813646263
100.06121763486351
100.17623597683023
100.48737724512968
101.27578244267639
103.13232946908839
107.16201325710107
115.16055547946911
129.58116913722927
153.08962823293615
187.70671581091145
187.71058113310113
153.09355466358568
129.5851987890037
115.16465457899454
107.1661458259982
103.1364957317504
101.27996454089009
100.49157175466348
100.18043639911372
100.06542138879968
100.02530347424309
100.01201267169792
100.00780668056257
100.00653040486114
100.00616361052369
100.00608660320276
100.00616361033713
100.00653040414925
100.00780668076779
100.01201267256222
100.02530342251512
100.06542134614722
100.18043638031263
100.49157111785901
101.27996420603944
103.13649014970467
107.166139459099
115.16462869034807
129.5851657097484
153.09352227924157
187.71047487760168
187.72251365394524
153.10589479280864
129.597864918678
115.17755619747811
107.17920753421355
103.14965942790401
101.29318909706618
100.50483030741633
100.19371273012284
100.07870643011931
100.0385925199731
100.02530344867793
100.0210981631862
100.01982215873836
100.01945546048374
100.01937847637808
100.01945546029764
100.01982215802825
100.02109816339654
100.0253034495571
100.03859246829218
100.07870638757475
100.19371271156659
100.50482967116032
101.29318876322033
103.14965384773538
107.17920117012196
115.17753031300292
129.59783184449907
153.10586241388123
187.72240740436337
187.75857786805528
153.14326087925977
129.63620407268627
115.21658773788931
107.21870018756931
103.18943910872201
101.33313553781271
100.54486714940943
100.2337953271738
100.11881068081317
100.07870637477619
100.065421307664
100.06121759660385
100.05994217675877
100.0595756792484
100.05949874265339
100.05957567906302
100.05994217605176
100.06121759682304
100.06542130857085
100.07870632319003
100.1188106384969
100.23379530916694
100.54486651447289
101.33313520652577
103.18943353361476
107.21869383139226
115.21656186560693
129.63617101374592
153.14322851684835
187.75847163667655
187.8623645067858
153.25072522821625
129.74642286471206
115.32873312941709
107.33210269923288
103.30360504630075
101.44773259138546
100.65969065895477
100.34872963511582
100.23379560093595
100.1937129483576
100.18043659072865
100.1762361862634
100.17496195387234
100.17459585216302
100.17451900740159
100.17459585197908
100.17496195317021
100.17623618649694
100.18043659168207
100.1937128969469
100.2337955590567
100.34872961822448
100.65969002691176
101.44773226607133
103.3035994838394
107.33209636389594
115.32870729069194
129.74638984907696
153.25069291374567
187.86225832847464
188.14404700643925
153.54233985748456
130.04537658342073
115.63273505027786
107.63932772535227
103.61273703724702
101.75790996206304
100.97039958424075
100.65968984229565
100.54486660711717
100.50482970902878
100.49157112696163
100.48737724926768
100.48610528808672
100.4857399225741
100.4856632454627
100.48573992239214
100.48610528739196
100.48737724952211
100.49157112798626
100.50482965791474
100.54486656599018
100.65968982742788
100.97039895789786
101.75790964931336
103.61273150364617
107.63932144065167
115.63270929771551
130.04534368350588
153.54230767448695
188.14394097466925
188.8600603657869
154.28347542543267
130.80482475944476
116.40455443596886
108.41886674497077
104.39672158372701
102.54425861349354
101.75791163741427
101.4477334606622
101.33313668716261
101.29319018967543
101.27996559654314
101.27578381622608
101.27451594416496
101.27415187054962
101.27407548261509
101.27415187037022
101.2745159434803
101.27578381650846
101.27996559766557
101.29319013902088
101.33313664719661
101.44773344904404
101.75791102103284
102.54425832405731
104.39671610916639
108.4188605718783
116.40452888746326
130.80479214801488
154.28344358164253
188.85995471553815
190.55118761012744
156.03360558373805
132.59741117036245
118.22528382109869
110.25675116460616
106.24421918200515
104.3967164265148
103.61273357282866
103.30360080826684
103.18943516628606
103.14965542574222
103.13649167193896
103.13233094154073
103.13107000071005
103.13070806702181
103.1306321507143
103.13070806684564
103.13107000003843
103.13233094185631
103.13649167318155
103.14965537574403
103.18943512792144
103.30360080122986
103.61273297177851
104.39671617444625
106.24421381272991
110.25674520924225
118.22525871043707
132.59737922442034
156.03357455987077
190.55108289550256
194.23179609301502
159.8421067019838
136.4966058421235
122.1834849288727
114.25009905589472
110.25674554448162
108.41885603196266
107.63931879703686
107.33209309564589
107.21869091604745
107.179198190861
107.16613637865397
107.16201004764837
107.16076017580087
107.16040159111563
107.16032640290358
107.16040159094342
107.16076017514509
107.16201004799892
107.16613638002656
107.1791981417342
107.21869087965652
107.33209309423043
107.63931821671389
108.41885583090756
110.25674033509084
114.25009345700927
122.18346064813116
136.49657529213323
159.84207754240552
194.23169353999813
201.55538916986728
167.41889800117463
144.25066173752396
130.05083346718712
122.18347389025341
118.22526703029818
116.40453272588826
115.63271544450376
115.32871309110243
115.2165680683999
115.17753640383644
115.1646346025515
115.1605611197883
115.15932792206941
115.15897429595373
115.15890017324212
115.1589742957862
115.15932792143182
115.16056112017074
115.16463460404486
115.17753635579746
115.21656803418065
115.32871309560413
115.63271488887533
116.40453258320129
118.22526202751244
122.18346875740036
130.05081043760387
144.25063383095173
167.41887277137297
201.55529149487208
214.78637515430805
181.10537100429133
158.25226420486587
144.2506431918323
136.49657499384358
132.59737379160262
130.80478317245502
130.04533807237095
129.74638451446782
129.63616589571313
129.59782630738016
129.5851601222475
129.5811630902823
129.57995362499938
129.57960695658056
129.57953431452745
129.57960695641833
129.57995362438194
129.58116309068814
129.58516012383012
129.5978262606349
129.6361658636229
129.7463845241335
130.04533754283312
130.80478308450103
132.5973690166326
136.49657035257886
144.25062152595407
158.25223964605482
181.10535450037133
214.78628772603224
236.3906529978035
203.4507996075473
181.10540980009515
167.41891494862642
159.84210633248634
156.0335980940099
154.2834645906376
153.54233710909216
153.25072326196914
153.14325687125276
153.10589003643943
153.09355003843666
153.08965737283413
153.08847989259434
153.08814249600525
153.0880718119219
153.0881424958484
153.0884798919983
153.08965737324968
153.0935500400564
153.10588999117778
153.14325684101118
153.25072327499473
153.54233660427977
154.28346454169068
156.03359353973462
159.84210209047887
167.41889455020333
181.10538694545912
203.45079044996527
236.39060648186668
268.24070793144824
236.3905898764675
214.78631782483106
201.5553083610186
194.23169743635762
190.55104566426522
188.85995065310027
188.14394614504366
187.8622647528541
187.75847548333974
187.72239275940439
187.71047855238353
187.70672071335844
187.70558415988103
187.70525852720633
187.70519031296962
187.70525852705524
187.7055841593078
187.70672071376669
187.71047855397467
187.7223927158025
187.75847545450108
187.8622647667068
188.1439456615842
188.8599506190176
190.5510413016378
194.2316934453728
201.555288849133
214.7862966750582
236.39057045725755
268.24067022530255
