# vtk DataFile Version 2.0
Unstructured Grid Example
ASCII
DATASET UNSTRUCTURED_GRID

POINTS 16.0 float
0.100000001 0.00499999989 0
0.0546918176 0.00499999989 0
0.0226540919 0.00499999989 0
0.0 0.00499999989 0
0.100000001 -0.0403081849 0
0.0623899326 -0.0326100662 0
0.0303522106 -0.0253522098 0
0.0 -0.0176540911 0
0.100000001 -0.072345905 0
0.069647789 -0.0646477863 0
0.0376100652 -0.0573899336 0
0.0 -0.0496918149 0
0.100000001 -0.0949999988 0
0.0773459077 -0.0949999988 0
0.0453081839 -0.0949999988 0
0.0 -0.0949999988 0

CELLS 9 45
4 0 1 5 4
4 1 2 6 5
4 2 3 7 6
4 4 5 9 8
4 5 6 10 9
4 6 7 11 10
4 8 9 13 12
4 9 10 14 13
4 10 11 15 14

CELL_TYPES 9
9
9
9
9
9
9
9
9
9

POINT_DATA 16.0
SCALARS Temp float 1
LOOKUP_TABLE default
350.79857520657856
230.3152420207677
296.27303569218253
425.41254045926246
249.17226229917884
93.78548848287738
122.04527613378339
271.5851863870492
293.1707993557099
123.24605063715089
93.73596033690045
220.2398212464412
419.61770344925327
300.7505691671446
219.9697233384897
311.8668600659653
