# vtk DataFile Version 2.0
Unstructured Grid Example
ASCII
DATASET UNSTRUCTURED_GRID

POINTS 16 float
0.100000001 0.00499999989 0
0.0546918176 0.00499999989 0
0.0226540919 0.00499999989 0
0 0.00499999989 1
0.100000001 -0.0403081849 0
0.0623899326 -0.0326100662 0
0.0303522106 -0.0253522098 0
0 -0.0176540911 1
0.100000001 -0.072345905 0
0.069647789 -0.0646477863 0
0.0376100652 -0.0573899336 0
0 -0.0496918149 1
0.100000001 -0.0949999988 0
0.0773459077 -0.0949999988 0
0.0453081839 -0.0949999988 0
0 -0.0949999988 1

CELLS 9 45
4 0 1 5 4
4 1 2 6 5
4 2 3 7 6
4 4 5 9 8
4 5 6 10 9
4 6 7 11 10
4 8 9 13 12
4 9 10 14 13
4 10 11 15 14

CELL_TYPES 9
9
9
9
9
9
9
9
9
9

POINT_DATA 16
SCALARS Temp float 1
LOOKUP_TABLE default
827.7336996435059
713.4162551057418
791.1616883005837
908.019027920478
742.4998929128702
580.4039822921121
606.33936264807
754.2811813940755
803.7662319208481
621.0578203851325
557.161829598555
665.9906690385728
924.6442246531757
808.347793421
677.949243550998
723.796213309314
